
     Program BANDS v.6.6 starts on  2Nov2024 at  0:29:39 

     This program is part of the open-source Quantum ESPRESSO suite
     for quantum simulation of materials; please cite
         "P. Giannozzi et al., J. Phys.:Condens. Matter 21 395502 (2009);
         "P. Giannozzi et al., J. Phys.:Condens. Matter 29 465901 (2017);
          URL http://www.quantum-espresso.org", 
     in publications or presentations arising from this work. More details at
     http://www.quantum-espresso.org/quote

     Parallel version (MPI & OpenMP), running on       4 processor cores
     Number of MPI processes:                 4
     Threads/MPI process:                     1

     MPI processes distributed on     1 nodes
     R & G space division:  proc/nbgrp/npool/nimage =       4
     Fft bands division:     nmany     =       1

     Reading xml data from directory:

     ./out/1.save/
     file Na.pbe-spn-kjpaw_psl.1.0.0.UPF: wavefunction(s)  2P renormalized
     file O.pbe-n-kjpaw_psl.1.0.0.UPF: wavefunction(s)  2S 2P renormalized

     IMPORTANT: XC functional enforced from input :
     Exchange-correlation= PBE
                           (   1   4   3   4   0   0   0)
     Any further DFT definition will be discarded
     Please, verify this is what you really want


     Parallelization info
     --------------------
     sticks:   dense  smooth     PW     G-vecs:    dense   smooth      PW
     Min         305     250     73                 6997     5205     803
     Max         308     251     74                 6998     5208     804
     Sum        1225    1003    295                27989    20827    3215


     Check: negative core charge=   -0.000003
     Reading collected, re-writing distributed wavefunctions
     high-symmetry point:  0.0000 0.0000 0.0000   x coordinate   0.0000
     high-symmetry point:  0.3536 0.3536-0.3537   x coordinate   0.6126
     high-symmetry point: -0.0001 0.7072-0.0001   x coordinate   1.2251
     high-symmetry point:  0.3535 0.3535 0.3535   x coordinate   1.8377
     high-symmetry point:  0.0000 0.0000 0.0000   x coordinate   2.4499
     high-symmetry point:  0.3536-0.3537 0.3536   x coordinate   3.0625
     high-symmetry point:  0.7072-0.0001-0.0001   x coordinate   3.6750

     Plottable bands (eV) written to file bands.dat.gnu
     Bands written to file bands.dat

 **************************************************************************

                    xk=(   0.00000,   0.00000,   0.00000  )

     point group D_3d (-3m) 
     there are  6 classes
     the character table:

       E     2C3   3C2'  i     2S6   3s_d 
A_1g   1.00  1.00  1.00  1.00  1.00  1.00
A_2g   1.00  1.00 -1.00  1.00  1.00 -1.00
E_g    2.00 -1.00  0.00  2.00 -1.00  0.00
A_1u   1.00  1.00  1.00 -1.00 -1.00 -1.00
A_2u   1.00  1.00 -1.00 -1.00 -1.00  1.00
E_u    2.00 -1.00  0.00 -2.00  1.00  0.00

     the symmetry operations in each class and the name of the first element:

     E        1
                                                                 
     2C3      5    6
                                                                 
     3C2'     2    4    3
                                                                 
     i        7
                                                                 
     2S6     11   12
                                                                 
     3s_d     8   10    9
                                                                 

     Band symmetry, D_3d (-3m)  point group:

     e(  1 -  1) =    -46.81280  eV     1   --> A_1g L_1       
     e(  2 -  2) =    -46.72855  eV     1   --> A_2u L_2'      
     e(  3 -  3) =    -18.79741  eV     1   --> A_1g L_1       
     e(  4 -  5) =    -18.79713  eV     2   --> E_g  L_3       
     e(  6 -  8) =    -18.59099  eV     3   --> A_2u L_2'      
     e(  6 -  8) =    -18.59099  eV     3   --> E_u  L_3'      
     e(  9 -  9) =    -11.45061  eV     1   --> A_1g L_1       
     e( 10 - 10) =      3.19371  eV     1   --> A_2u L_2'      
     e( 11 - 12) =      3.19483  eV     2   --> E_u  L_3'      
     e( 13 - 13) =      5.17785  eV     1   --> A_1g L_1       
     e( 14 - 14) =     16.16396  eV     1   --> A_1g L_1       
     e( 15 - 16) =     16.17445  eV     2   --> E_g  L_3       
     e( 17 - 17) =     17.14504  eV     1   --> A_2u L_2'      
     e( 18 - 19) =     17.15107  eV     2   --> E_u  L_3'      
     e( 20 - 21) =     17.44538  eV     2   --> E_g  L_3       
     e( 22 - 22) =     21.56183  eV     1   --> A_1g L_1       
     e( 23 - 23) =     25.30737  eV     1   --> A_2u L_2'      
     e( 24 - 24) =     25.90223  eV     1   --> A_2u L_2'      
     e( 25 - 26) =     25.91145  eV     2   --> E_u  L_3'      
     e( 27 - 28) =     33.96720  eV     2   --> E_g  L_3       
     e( 29 - 29) =     33.97120  eV     1   --> A_1g L_1       
     e( 30 - 31) =     36.31542  eV     2   --> E_g  L_3       
     e( 32 - 33) =     37.75953  eV     2   --> E_u  L_3'      
     e( 34 - 34) =     37.77816  eV     1   --> A_1u L_1'      
     e( 35 - 35) =     40.90054  eV     1   --> A_1g L_1       
     e( 36 - 37) =     43.97332  eV     2   --> E_u  L_3'      
     e( 38 - 38) =     45.12514  eV     1   --> A_2u L_2'      
     e( 39 - 40) =     45.14835  eV     2   --> E_u  L_3'      

 **************************************************************************

 **************************************************************************

                    xk=(   0.04420,   0.04420,  -0.04422  )

     point group C_s (m)    
     there are  2 classes
     the character table:

       E     s    
A'     1.00  1.00
A''    1.00 -1.00

     the symmetry operations in each class and the name of the first element:

     E        1
                                                                 
     s        2
                                                                 

     Band symmetry, C_s (m)     point group:

     e(  1 -  1) =    -46.81202  eV     1   --> A'             
     e(  2 -  2) =    -46.72932  eV     1   --> A'             
     e(  3 -  3) =    -18.79630  eV     1   --> A'             
     e(  4 -  4) =    -18.79561  eV     1   --> A'             
     e(  5 -  5) =    -18.79537  eV     1   --> A''            
     e(  6 -  6) =    -18.59581  eV     1   --> A'             
     e(  7 -  8) =    -18.59351  eV     2   --> A'             
     e(  7 -  8) =    -18.59351  eV     2   --> A''            
     e(  9 -  9) =    -11.44220  eV     1   --> A'             
     e( 10 - 10) =      3.07844  eV     1   --> A'             
     e( 11 - 11) =      3.19242  eV     1   --> A'             
     e( 12 - 12) =      3.19340  eV     1   --> A''            
     e( 13 - 13) =      5.34531  eV     1   --> A'             
     e( 14 - 14) =     15.74702  eV     1   --> A'             
     e( 15 - 15) =     16.06793  eV     1   --> A'             
     e( 16 - 16) =     16.07615  eV     1   --> A''            
     e( 17 - 17) =     16.80127  eV     1   --> A'             
     e( 18 - 18) =     16.80560  eV     1   --> A''            
     e( 19 - 19) =     17.30612  eV     1   --> A'             
     e( 20 - 20) =     17.99426  eV     1   --> A'             
     e( 21 - 21) =     17.99660  eV     1   --> A''            
     e( 22 - 22) =     21.85917  eV     1   --> A'             
     e( 23 - 23) =     25.47164  eV     1   --> A'             
     e( 24 - 24) =     25.79077  eV     1   --> A'             
     e( 25 - 25) =     25.96675  eV     1   --> A'             
     e( 26 - 26) =     25.97464  eV     1   --> A''            
     e( 27 - 27) =     33.41485  eV     1   --> A'             
     e( 28 - 28) =     33.41977  eV     1   --> A''            
     e( 29 - 29) =     33.97756  eV     1   --> A'             
     e( 30 - 30) =     35.72095  eV     1   --> A''            
     e( 31 - 31) =     35.72900  eV     1   --> A'             
     e( 32 - 32) =     37.81844  eV     1   --> A''            
     e( 33 - 33) =     39.05057  eV     1   --> A'             
     e( 34 - 34) =     39.06676  eV     1   --> A''            
     e( 35 - 35) =     40.98403  eV     1   --> A'             
     e( 36 - 36) =     43.70989  eV     1   --> A''            
     e( 37 - 37) =     43.71134  eV     1   --> A'             
     e( 38 - 38) =     44.81185  eV     1   --> A'             
     e( 39 - 39) =     45.06101  eV     1   --> A'             
     e( 40 - 40) =     45.08131  eV     1   --> A''            

 **************************************************************************

 **************************************************************************

                    xk=(   0.08840,   0.08840,  -0.08843  )

     Band symmetry, C_s (m)     point group:

     e(  1 -  1) =    -46.80945  eV     1   --> A'             
     e(  2 -  2) =    -46.73157  eV     1   --> A'             
     e(  3 -  3) =    -18.79335  eV     1   --> A'             
     e(  4 -  4) =    -18.79032  eV     1   --> A'             
     e(  5 -  5) =    -18.79010  eV     1   --> A''            
     e(  6 -  6) =    -18.60740  eV     1   --> A'             
     e(  7 -  8) =    -18.59992  eV     2   --> A'             
     e(  7 -  8) =    -18.59992  eV     2   --> A''            
     e(  9 -  9) =    -11.41831  eV     1   --> A'             
     e( 10 - 10) =      2.81655  eV     1   --> A'             
     e( 11 - 11) =      3.18847  eV     1   --> A'             
     e( 12 - 12) =      3.18941  eV     1   --> A''            
     e( 13 - 13) =      5.75918  eV     1   --> A'             
     e( 14 - 14) =     14.90398  eV     1   --> A'             
     e( 15 - 15) =     15.69121  eV     1   --> A'             
     e( 16 - 16) =     15.69704  eV     1   --> A''            
     e( 17 - 17) =     16.75504  eV     1   --> A'             
     e( 18 - 18) =     16.76150  eV     1   --> A''            
     e( 19 - 19) =     17.46675  eV     1   --> A'             
     e( 20 - 20) =     18.72757  eV     1   --> A'             
     e( 21 - 21) =     18.73085  eV     1   --> A''            
     e( 22 - 22) =     22.61958  eV     1   --> A'             
     e( 23 - 23) =     25.47103  eV     1   --> A'             
     e( 24 - 24) =     25.95630  eV     1   --> A'             
     e( 25 - 25) =     26.16893  eV     1   --> A'             
     e( 26 - 26) =     26.17606  eV     1   --> A''            
     e( 27 - 27) =     32.00353  eV     1   --> A'             
     e( 28 - 28) =     32.01516  eV     1   --> A''            
     e( 29 - 29) =     33.98006  eV     1   --> A'             
     e( 30 - 30) =     35.54410  eV     1   --> A''            
     e( 31 - 31) =     35.55952  eV     1   --> A'             
     e( 32 - 32) =     37.98890  eV     1   --> A''            
     e( 33 - 33) =     41.03790  eV     1   --> A'             
     e( 34 - 34) =     41.05488  eV     1   --> A''            
     e( 35 - 35) =     41.21321  eV     1   --> A'             
     e( 36 - 36) =     42.85762  eV     1   --> A''            
     e( 37 - 37) =     42.86210  eV     1   --> A'             
     e( 38 - 38) =     44.00940  eV     1   --> A'             
     e( 39 - 39) =     44.91500  eV     1   --> A'             
     e( 40 - 40) =     44.93510  eV     1   --> A''            

 **************************************************************************

 **************************************************************************

                    xk=(   0.13261,   0.13261,  -0.13265  )

     Band symmetry, C_s (m)     point group:

     e(  1 -  1) =    -46.80537  eV     1   --> A'             
     e(  2 -  2) =    -46.73528  eV     1   --> A'             
     e(  3 -  3) =    -18.78893  eV     1   --> A'             
     e(  4 -  4) =    -18.78170  eV     1   --> A'             
     e(  5 -  5) =    -18.78148  eV     1   --> A''            
     e(  6 -  6) =    -18.62597  eV     1   --> A'             
     e(  7 -  8) =    -18.61029  eV     2   --> A'             
     e(  7 -  8) =    -18.61029  eV     2   --> A''            
     e(  9 -  9) =    -11.38277  eV     1   --> A'             
     e( 10 - 10) =      2.52550  eV     1   --> A'             
     e( 11 - 11) =      3.18246  eV     1   --> A'             
     e( 12 - 12) =      3.18333  eV     1   --> A''            
     e( 13 - 13) =      6.29678  eV     1   --> A'             
     e( 14 - 14) =     13.94847  eV     1   --> A'             
     e( 15 - 15) =     15.22597  eV     1   --> A'             
     e( 16 - 16) =     15.23099  eV     1   --> A''            
     e( 17 - 17) =     16.95847  eV     1   --> A'             
     e( 18 - 18) =     16.96582  eV     1   --> A''            
     e( 19 - 19) =     17.56256  eV     1   --> A'             
     e( 20 - 20) =     19.46782  eV     1   --> A'             
     e( 21 - 21) =     19.47222  eV     1   --> A''            
     e( 22 - 22) =     23.50511  eV     1   --> A'             
     e( 23 - 23) =     25.13884  eV     1   --> A'             
     e( 24 - 24) =     26.53387  eV     1   --> A'             
     e( 25 - 25) =     26.53968  eV     1   --> A''            
     e( 26 - 26) =     26.72100  eV     1   --> A'             
     e( 27 - 27) =     30.39699  eV     1   --> A'             
     e( 28 - 28) =     30.41011  eV     1   --> A''            
     e( 29 - 29) =     33.90274  eV     1   --> A'             
     e( 30 - 30) =     35.71605  eV     1   --> A''            
     e( 31 - 31) =     35.73354  eV     1   --> A'             
     e( 32 - 32) =     38.27263  eV     1   --> A''            
     e( 33 - 33) =     41.38146  eV     1   --> A''            
     e( 34 - 34) =     41.38744  eV     1   --> A'             
     e( 35 - 35) =     41.48860  eV     1   --> A'             
     e( 36 - 36) =     42.85128  eV     1   --> A'             
     e( 37 - 37) =     42.86925  eV     1   --> A''            
     e( 38 - 38) =     43.03583  eV     1   --> A'             
     e( 39 - 39) =     44.56765  eV     1   --> A''            
     e( 40 - 40) =     44.58374  eV     1   --> A'             

 **************************************************************************

 **************************************************************************

                    xk=(   0.17681,   0.17681,  -0.17687  )

     Band symmetry, C_s (m)     point group:

     e(  1 -  1) =    -46.79992  eV     1   --> A'             
     e(  2 -  2) =    -46.74024  eV     1   --> A'             
     e(  3 -  3) =    -18.78307  eV     1   --> A'             
     e(  4 -  4) =    -18.76947  eV     1   --> A'             
     e(  5 -  5) =    -18.76927  eV     1   --> A''            
     e(  6 -  6) =    -18.64851  eV     1   --> A'             
     e(  7 -  8) =    -18.62413  eV     2   --> A'             
     e(  7 -  8) =    -18.62413  eV     2   --> A''            
     e(  9 -  9) =    -11.34118  eV     1   --> A'             
     e( 10 - 10) =      2.26281  eV     1   --> A'             
     e( 11 - 11) =      3.17539  eV     1   --> A'             
     e( 12 - 12) =      3.17620  eV     1   --> A''            
     e( 13 - 13) =      6.89408  eV     1   --> A'             
     e( 14 - 14) =     12.98269  eV     1   --> A'             
     e( 15 - 15) =     14.81076  eV     1   --> A'             
     e( 16 - 16) =     14.81561  eV     1   --> A''            
     e( 17 - 17) =     17.27224  eV     1   --> A'             
     e( 18 - 18) =     17.27989  eV     1   --> A''            
     e( 19 - 19) =     17.66691  eV     1   --> A'             
     e( 20 - 20) =     20.16420  eV     1   --> A'             
     e( 21 - 21) =     20.17003  eV     1   --> A''            
     e( 22 - 22) =     23.70217  eV     1   --> A'             
     e( 23 - 23) =     25.51673  eV     1   --> A'             
     e( 24 - 24) =     27.08874  eV     1   --> A'             
     e( 25 - 25) =     27.09272  eV     1   --> A''            
     e( 26 - 26) =     27.73951  eV     1   --> A'             
     e( 27 - 27) =     28.86579  eV     1   --> A'             
     e( 28 - 28) =     28.87912  eV     1   --> A''            
     e( 29 - 29) =     33.65781  eV     1   --> A'             
     e( 30 - 30) =     36.05327  eV     1   --> A''            
     e( 31 - 31) =     36.07150  eV     1   --> A'             
     e( 32 - 32) =     38.66881  eV     1   --> A''            
     e( 33 - 33) =     39.51685  eV     1   --> A''            
     e( 34 - 34) =     39.52307  eV     1   --> A'             
     e( 35 - 35) =     41.15978  eV     1   --> A'             
     e( 36 - 36) =     42.48042  eV     1   --> A'             
     e( 37 - 37) =     43.16026  eV     1   --> A''            
     e( 38 - 38) =     43.17404  eV     1   --> A'             
     e( 39 - 39) =     43.52342  eV     1   --> A'             
     e( 40 - 40) =     43.53865  eV     1   --> A''            

 **************************************************************************

 **************************************************************************

                    xk=(   0.22101,   0.22101,  -0.22109  )

     Band symmetry, C_s (m)     point group:

     e(  1 -  1) =    -46.79326  eV     1   --> A'             
     e(  2 -  2) =    -46.74641  eV     1   --> A'             
     e(  3 -  3) =    -18.77610  eV     1   --> A'             
     e(  4 -  4) =    -18.75486  eV     1   --> A'             
     e(  5 -  5) =    -18.75468  eV     1   --> A''            
     e(  6 -  6) =    -18.67215  eV     1   --> A'             
     e(  7 -  8) =    -18.64029  eV     2   --> A'             
     e(  7 -  8) =    -18.64029  eV     2   --> A''            
     e(  9 -  9) =    -11.29994  eV     1   --> A'             
     e( 10 - 10) =      2.05114  eV     1   --> A'             
     e( 11 - 11) =      3.16844  eV     1   --> A'             
     e( 12 - 12) =      3.16917  eV     1   --> A''            
     e( 13 - 13) =      7.52308  eV     1   --> A'             
     e( 14 - 14) =     12.05086  eV     1   --> A'             
     e( 15 - 15) =     14.47736  eV     1   --> A'             
     e( 16 - 16) =     14.48222  eV     1   --> A''            
     e( 17 - 17) =     17.63524  eV     1   --> A'             
     e( 18 - 18) =     17.64298  eV     1   --> A''            
     e( 19 - 19) =     17.82349  eV     1   --> A'             
     e( 20 - 20) =     20.78151  eV     1   --> A'             
     e( 21 - 21) =     20.78899  eV     1   --> A''            
     e( 22 - 22) =     23.18708  eV     1   --> A'             
     e( 23 - 23) =     26.60604  eV     1   --> A'             
     e( 24 - 24) =     27.36502  eV     1   --> A'             
     e( 25 - 25) =     27.37608  eV     1   --> A''            
     e( 26 - 26) =     27.99515  eV     1   --> A'             
     e( 27 - 27) =     27.99906  eV     1   --> A''            
     e( 28 - 28) =     28.98724  eV     1   --> A'             
     e( 29 - 29) =     33.18599  eV     1   --> A'             
     e( 30 - 30) =     36.50591  eV     1   --> A''            
     e( 31 - 31) =     36.52439  eV     1   --> A'             
     e( 32 - 32) =     37.54729  eV     1   --> A''            
     e( 33 - 33) =     37.55300  eV     1   --> A'             
     e( 34 - 34) =     39.17554  eV     1   --> A''            
     e( 35 - 35) =     39.65993  eV     1   --> A'             
     e( 36 - 36) =     41.97039  eV     1   --> A''            
     e( 37 - 37) =     41.98833  eV     1   --> A'             
     e( 38 - 38) =     42.75623  eV     1   --> A'             
     e( 39 - 39) =     43.40476  eV     1   --> A'             
     e( 40 - 40) =     43.42352  eV     1   --> A''            

 **************************************************************************

 **************************************************************************

                    xk=(   0.26521,   0.26521,  -0.26530  )

     Band symmetry, C_s (m)     point group:

     e(  1 -  1) =    -46.78579  eV     1   --> A'             
     e(  2 -  2) =    -46.75353  eV     1   --> A'             
     e(  3 -  3) =    -18.76780  eV     1   --> A'             
     e(  4 -  4) =    -18.73805  eV     1   --> A'             
     e(  5 -  5) =    -18.73789  eV     1   --> A''            
     e(  6 -  6) =    -18.69445  eV     1   --> A'             
     e(  7 -  8) =    -18.65895  eV     2   --> A'             
     e(  7 -  8) =    -18.65895  eV     2   --> A''            
     e(  9 -  9) =    -11.26526  eV     1   --> A'             
     e( 10 - 10) =      1.89866  eV     1   --> A'             
     e( 11 - 11) =      3.16238  eV     1   --> A'             
     e( 12 - 12) =      3.16305  eV     1   --> A''            
     e( 13 - 13) =      8.17390  eV     1   --> A'             
     e( 14 - 14) =     11.17386  eV     1   --> A'             
     e( 15 - 15) =     14.23544  eV     1   --> A'             
     e( 16 - 16) =     14.24038  eV     1   --> A''            
     e( 17 - 17) =     17.98606  eV     1   --> A'             
     e( 18 - 18) =     17.99380  eV     1   --> A''            
     e( 19 - 19) =     18.02866  eV     1   --> A'             
     e( 20 - 20) =     21.30218  eV     1   --> A'             
     e( 21 - 21) =     21.31125  eV     1   --> A''            
     e( 22 - 22) =     22.59334  eV     1   --> A'             
     e( 23 - 23) =     26.25685  eV     1   --> A'             
     e( 24 - 24) =     26.26945  eV     1   --> A''            
     e( 25 - 25) =     27.79300  eV     1   --> A'             
     e( 26 - 26) =     28.95816  eV     1   --> A''            
     e( 27 - 27) =     28.95839  eV     1   --> A'             
     e( 28 - 28) =     30.43338  eV     1   --> A'             
     e( 29 - 29) =     32.49753  eV     1   --> A'             
     e( 30 - 30) =     35.62013  eV     1   --> A''            
     e( 31 - 31) =     35.62449  eV     1   --> A'             
     e( 32 - 32) =     37.06342  eV     1   --> A''            
     e( 33 - 33) =     37.08242  eV     1   --> A'             
     e( 34 - 34) =     37.80355  eV     1   --> A'             
     e( 35 - 35) =     39.78712  eV     1   --> A''            
     e( 36 - 36) =     40.89469  eV     1   --> A''            
     e( 37 - 37) =     40.91301  eV     1   --> A'             
     e( 38 - 38) =     43.08310  eV     1   --> A'             
     e( 39 - 39) =     43.23568  eV     1   --> A'             
     e( 40 - 40) =     43.25434  eV     1   --> A''            

 **************************************************************************

 **************************************************************************

                    xk=(   0.30941,   0.30941,  -0.30952  )

     Band symmetry, C_s (m)     point group:

     e(  1 -  1) =    -46.77777  eV     1   --> A'             
     e(  2 -  2) =    -46.76130  eV     1   --> A'             
     e(  3 -  3) =    -18.75894  eV     1   --> A'             
     e(  4 -  4) =    -18.71940  eV     1   --> A'             
     e(  5 -  5) =    -18.71927  eV     1   --> A''            
     e(  6 -  6) =    -18.71230  eV     1   --> A'             
     e(  7 -  8) =    -18.67885  eV     2   --> A'             
     e(  7 -  8) =    -18.67885  eV     2   --> A''            
     e(  9 -  9) =    -11.24222  eV     1   --> A'             
     e( 10 - 10) =      1.80729  eV     1   --> A'             
     e( 11 - 11) =      3.15831  eV     1   --> A'             
     e( 12 - 12) =      3.15893  eV     1   --> A''            
     e( 13 - 13) =      8.84528  eV     1   --> A'             
     e( 14 - 14) =     10.36237  eV     1   --> A'             
     e( 15 - 15) =     14.08927  eV     1   --> A'             
     e( 16 - 16) =     14.09426  eV     1   --> A''            
     e( 17 - 17) =     18.22404  eV     1   --> A'             
     e( 18 - 18) =     18.24800  eV     1   --> A'             
     e( 19 - 19) =     18.25557  eV     1   --> A''            
     e( 20 - 20) =     21.69796  eV     1   --> A'             
     e( 21 - 21) =     21.70828  eV     1   --> A''            
     e( 22 - 22) =     22.13430  eV     1   --> A'             
     e( 23 - 23) =     25.41842  eV     1   --> A'             
     e( 24 - 24) =     25.43077  eV     1   --> A''            
     e( 25 - 25) =     28.89575  eV     1   --> A'             
     e( 26 - 26) =     30.14130  eV     1   --> A''            
     e( 27 - 27) =     30.14416  eV     1   --> A'             
     e( 28 - 28) =     31.58700  eV     1   --> A'             
     e( 29 - 29) =     32.12696  eV     1   --> A'             
     e( 30 - 30) =     33.88733  eV     1   --> A''            
     e( 31 - 31) =     33.88995  eV     1   --> A'             
     e( 32 - 32) =     35.90904  eV     1   --> A'             
     e( 33 - 33) =     37.64070  eV     1   --> A''            
     e( 34 - 34) =     37.65999  eV     1   --> A'             
     e( 35 - 35) =     39.99894  eV     1   --> A''            
     e( 36 - 36) =     40.01725  eV     1   --> A'             
     e( 37 - 37) =     40.47805  eV     1   --> A''            
     e( 38 - 38) =     42.54270  eV     1   --> A''            
     e( 39 - 39) =     43.11570  eV     1   --> A'             
     e( 40 - 40) =     43.13473  eV     1   --> A''            

 **************************************************************************

 **************************************************************************

                    xk=(   0.35361,   0.35361,  -0.35374  )

     point group C_2h (2/m) 
     there are  4 classes
     the character table:

       E     C2    i     s_h  
A_g    1.00  1.00  1.00  1.00
B_g    1.00 -1.00  1.00 -1.00
A_u    1.00  1.00 -1.00 -1.00
B_u    1.00 -1.00 -1.00  1.00

     the symmetry operations in each class and the name of the first element:

     E        1
                                                                 
     C2       2
                                                                 
     i        3
                                                                 
     s_h      4
                                                                 

     Band symmetry, C_2h (2/m)  point group:

     e(  1 -  2) =    -46.76956  eV     2   --> A_g            
     e(  1 -  2) =    -46.76956  eV     2   --> B_u            
     e(  3 -  3) =    -18.75455  eV     1   --> A_g            
     e(  4 -  4) =    -18.72062  eV     1   --> B_u            
     e(  5 -  5) =    -18.70211  eV     1   --> B_u            
     e(  6 -  6) =    -18.70190  eV     1   --> A_u            
     e(  7 -  8) =    -18.69694  eV     2   --> A_g            
     e(  7 -  8) =    -18.69694  eV     2   --> B_g            
     e(  9 -  9) =    -11.23416  eV     1   --> A_g            
     e( 10 - 10) =      1.77706  eV     1   --> B_u            
     e( 11 - 11) =      3.15670  eV     1   --> B_u            
     e( 12 - 12) =      3.15732  eV     1   --> A_u            
     e( 13 - 13) =      9.41500  eV     1   --> B_u            
     e( 14 - 14) =      9.74432  eV     1   --> A_g            
     e( 15 - 15) =     14.04019  eV     1   --> A_g            
     e( 16 - 16) =     14.04520  eV     1   --> B_g            
     e( 17 - 17) =     18.30889  eV     1   --> B_u            
     e( 18 - 18) =     18.34598  eV     1   --> B_u            
     e( 19 - 19) =     18.35353  eV     1   --> A_u            
     e( 20 - 20) =     21.86256  eV     1   --> A_g            
     e( 21 - 21) =     21.87348  eV     1   --> B_g            
     e( 22 - 22) =     21.95733  eV     1   --> A_g            
     e( 23 - 23) =     25.09282  eV     1   --> B_u            
     e( 24 - 24) =     25.10500  eV     1   --> A_u            
     e( 25 - 25) =     29.51632  eV     1   --> B_u            
     e( 26 - 26) =     30.97324  eV     1   --> B_g            
     e( 27 - 27) =     30.97882  eV     1   --> A_g            
     e( 28 - 28) =     31.10754  eV     1   --> A_g            
     e( 29 - 29) =     32.87169  eV     1   --> A_u            
     e( 30 - 30) =     32.87186  eV     1   --> B_u            
     e( 31 - 31) =     33.38205  eV     1   --> B_u            
     e( 32 - 32) =     34.49775  eV     1   --> A_g            
     e( 33 - 33) =     37.97587  eV     1   --> B_g            
     e( 34 - 34) =     37.99545  eV     1   --> A_g            
     e( 35 - 35) =     39.55807  eV     1   --> A_u            
     e( 36 - 36) =     39.57616  eV     1   --> B_u            
     e( 37 - 37) =     40.97988  eV     1   --> A_u            
     e( 38 - 38) =     41.92645  eV     1   --> B_g            
     e( 39 - 39) =     43.07330  eV     1   --> A_g            
     e( 40 - 40) =     43.09227  eV     1   --> B_g            

 **************************************************************************

 **************************************************************************

                    xk=(   0.26518,   0.44202,  -0.26533  )

     point group C_1 (1)    
     there are  1 classes
     the character table:

       E    
A      1.00

     the symmetry operations in each class and the name of the first element:

     E        1
                                                                 

     Band symmetry, C_1 (1)     point group:

     e(  1 -  1) =    -46.77481  eV     1   --> A              
     e(  2 -  2) =    -46.76406  eV     1   --> A              
     e(  3 -  3) =    -18.80473  eV     1   --> A              
     e(  4 -  4) =    -18.77119  eV     1   --> A              
     e(  5 -  5) =    -18.75536  eV     1   --> A              
     e(  6 -  6) =    -18.66135  eV     1   --> A              
     e(  7 -  7) =    -18.64490  eV     1   --> A              
     e(  8 -  8) =    -18.63760  eV     1   --> A              
     e(  9 -  9) =    -11.22540  eV     1   --> A              
     e( 10 - 10) =      1.87917  eV     1   --> A              
     e( 11 - 11) =      3.01992  eV     1   --> A              
     e( 12 - 12) =      3.12565  eV     1   --> A              
     e( 13 - 13) =      9.06555  eV     1   --> A              
     e( 14 - 14) =     10.32858  eV     1   --> A              
     e( 15 - 15) =     13.56395  eV     1   --> A              
     e( 16 - 16) =     14.17441  eV     1   --> A              
     e( 17 - 17) =     17.49074  eV     1   --> A              
     e( 18 - 18) =     18.55426  eV     1   --> A              
     e( 19 - 19) =     19.32619  eV     1   --> A              
     e( 20 - 20) =     21.22577  eV     1   --> A              
     e( 21 - 21) =     22.07520  eV     1   --> A              
     e( 22 - 22) =     22.84456  eV     1   --> A              
     e( 23 - 23) =     25.13081  eV     1   --> A              
     e( 24 - 24) =     25.22465  eV     1   --> A              
     e( 25 - 25) =     29.11335  eV     1   --> A              
     e( 26 - 26) =     29.51964  eV     1   --> A              
     e( 27 - 27) =     30.97565  eV     1   --> A              
     e( 28 - 28) =     31.98459  eV     1   --> A              
     e( 29 - 29) =     32.79467  eV     1   --> A              
     e( 30 - 30) =     33.27860  eV     1   --> A              
     e( 31 - 31) =     34.50029  eV     1   --> A              
     e( 32 - 32) =     35.29120  eV     1   --> A              
     e( 33 - 33) =     35.50920  eV     1   --> A              
     e( 34 - 34) =     37.02047  eV     1   --> A              
     e( 35 - 35) =     38.13571  eV     1   --> A              
     e( 36 - 36) =     38.66644  eV     1   --> A              
     e( 37 - 37) =     42.13389  eV     1   --> A              
     e( 38 - 38) =     42.65535  eV     1   --> A              
     e( 39 - 39) =     43.46334  eV     1   --> A              
     e( 40 - 40) =     43.77730  eV     1   --> A              

 **************************************************************************

 **************************************************************************

                    xk=(   0.17675,   0.53042,  -0.17693  )

     Band symmetry, C_1 (1)     point group:

     e(  1 -  1) =    -46.77917  eV     1   --> A              
     e(  2 -  2) =    -46.75940  eV     1   --> A              
     e(  3 -  3) =    -18.87193  eV     1   --> A              
     e(  4 -  4) =    -18.81548  eV     1   --> A              
     e(  5 -  5) =    -18.80432  eV     1   --> A              
     e(  6 -  6) =    -18.60918  eV     1   --> A              
     e(  7 -  7) =    -18.59980  eV     1   --> A              
     e(  8 -  8) =    -18.58264  eV     1   --> A              
     e(  9 -  9) =    -11.20375  eV     1   --> A              
     e( 10 - 10) =      2.07616  eV     1   --> A              
     e( 11 - 11) =      2.79571  eV     1   --> A              
     e( 12 - 12) =      3.05257  eV     1   --> A              
     e( 13 - 13) =      8.59633  eV     1   --> A              
     e( 14 - 14) =     11.33429  eV     1   --> A              
     e( 15 - 15) =     12.97235  eV     1   --> A              
     e( 16 - 16) =     14.46142  eV     1   --> A              
     e( 17 - 17) =     16.10182  eV     1   --> A              
     e( 18 - 18) =     19.24594  eV     1   --> A              
     e( 19 - 19) =     19.55241  eV     1   --> A              
     e( 20 - 20) =     21.65160  eV     1   --> A              
     e( 21 - 21) =     22.63579  eV     1   --> A              
     e( 22 - 22) =     24.12767  eV     1   --> A              
     e( 23 - 23) =     25.24102  eV     1   --> A              
     e( 24 - 24) =     25.92541  eV     1   --> A              
     e( 25 - 25) =     27.76493  eV     1   --> A              
     e( 26 - 26) =     28.50562  eV     1   --> A              
     e( 27 - 27) =     30.80165  eV     1   --> A              
     e( 28 - 28) =     31.30957  eV     1   --> A              
     e( 29 - 29) =     32.21453  eV     1   --> A              
     e( 30 - 30) =     33.64334  eV     1   --> A              
     e( 31 - 31) =     34.19564  eV     1   --> A              
     e( 32 - 32) =     34.67717  eV     1   --> A              
     e( 33 - 33) =     35.63960  eV     1   --> A              
     e( 34 - 34) =     37.44342  eV     1   --> A              
     e( 35 - 35) =     37.78430  eV     1   --> A              
     e( 36 - 36) =     38.42918  eV     1   --> A              
     e( 37 - 37) =     40.80165  eV     1   --> A              
     e( 38 - 38) =     42.73493  eV     1   --> A              
     e( 39 - 39) =     43.13042  eV     1   --> A              
     e( 40 - 40) =     43.81744  eV     1   --> A              

 **************************************************************************

 **************************************************************************

                    xk=(   0.08831,   0.61883,  -0.08853  )

     Band symmetry, C_1 (1)     point group:

     e(  1 -  1) =    -46.78203  eV     1   --> A              
     e(  2 -  2) =    -46.75620  eV     1   --> A              
     e(  3 -  3) =    -18.92172  eV     1   --> A              
     e(  4 -  4) =    -18.84082  eV     1   --> A              
     e(  5 -  5) =    -18.83726  eV     1   --> A              
     e(  6 -  6) =    -18.57313  eV     1   --> A              
     e(  7 -  7) =    -18.57075  eV     1   --> A              
     e(  8 -  8) =    -18.54724  eV     1   --> A              
     e(  9 -  9) =    -11.18139  eV     1   --> A              
     e( 10 - 10) =      2.07028  eV     1   --> A              
     e( 11 - 11) =      2.84998  eV     1   --> A              
     e( 12 - 12) =      2.98285  eV     1   --> A              
     e( 13 - 13) =      8.14529  eV     1   --> A              
     e( 14 - 14) =     12.08567  eV     1   --> A              
     e( 15 - 15) =     13.13862  eV     1   --> A              
     e( 16 - 16) =     14.69752  eV     1   --> A              
     e( 17 - 17) =     15.06322  eV     1   --> A              
     e( 18 - 18) =     17.85425  eV     1   --> A              
     e( 19 - 19) =     20.44902  eV     1   --> A              
     e( 20 - 20) =     23.27545  eV     1   --> A              
     e( 21 - 21) =     24.24683  eV     1   --> A              
     e( 22 - 22) =     24.89341  eV     1   --> A              
     e( 23 - 23) =     25.34992  eV     1   --> A              
     e( 24 - 24) =     26.40717  eV     1   --> A              
     e( 25 - 25) =     26.73560  eV     1   --> A              
     e( 26 - 26) =     27.96635  eV     1   --> A              
     e( 27 - 27) =     28.35510  eV     1   --> A              
     e( 28 - 28) =     30.95534  eV     1   --> A              
     e( 29 - 29) =     32.30873  eV     1   --> A              
     e( 30 - 30) =     32.56676  eV     1   --> A              
     e( 31 - 31) =     32.97173  eV     1   --> A              
     e( 32 - 32) =     35.00079  eV     1   --> A              
     e( 33 - 33) =     35.63537  eV     1   --> A              
     e( 34 - 34) =     36.46065  eV     1   --> A              
     e( 35 - 35) =     39.76554  eV     1   --> A              
     e( 36 - 36) =     40.11959  eV     1   --> A              
     e( 37 - 37) =     40.70169  eV     1   --> A              
     e( 38 - 38) =     42.51339  eV     1   --> A              
     e( 39 - 39) =     43.14901  eV     1   --> A              
     e( 40 - 40) =     43.85986  eV     1   --> A              

 **************************************************************************

 **************************************************************************

                    xk=(  -0.00012,   0.70723,  -0.00012  )

     point group C_2h (2/m) 
     there are  4 classes
     the character table:

       E     C2    i     s_h  
A_g    1.00  1.00  1.00  1.00
B_g    1.00 -1.00  1.00 -1.00
A_u    1.00  1.00 -1.00 -1.00
B_u    1.00 -1.00 -1.00  1.00

     the symmetry operations in each class and the name of the first element:

     E        1
                                                                 
     C2       2
                                                                 
     i        3
                                                                 
     s_h      4
                                                                 

     Band symmetry, C_2h (2/m)  point group:

     e(  1 -  1) =    -46.78298  eV     1   --> B_u            
     e(  2 -  2) =    -46.75510  eV     1   --> A_g            
     e(  3 -  3) =    -18.93946  eV     1   --> A_g            
     e(  4 -  4) =    -18.84930  eV     1   --> B_u            
     e(  5 -  5) =    -18.84911  eV     1   --> A_u            
     e(  6 -  7) =    -18.56037  eV     2   --> A_g            
     e(  6 -  7) =    -18.56037  eV     2   --> B_g            
     e(  8 -  8) =    -18.53521  eV     1   --> B_u            
     e(  9 -  9) =    -11.17190  eV     1   --> A_g            
     e( 10 - 10) =      2.00694  eV     1   --> B_u            
     e( 11 - 11) =      2.95470  eV     1   --> B_u            
     e( 12 - 12) =      2.95593  eV     1   --> A_u            
     e( 13 - 13) =      7.94969  eV     1   --> A_g            
     e( 14 - 14) =     12.18982  eV     1   --> B_u            
     e( 15 - 15) =     13.61856  eV     1   --> A_g            
     e( 16 - 16) =     14.77976  eV     1   --> B_u            
     e( 17 - 17) =     14.78448  eV     1   --> A_u            
     e( 18 - 18) =     16.91032  eV     1   --> A_g            
     e( 19 - 19) =     21.39024  eV     1   --> A_u            
     e( 20 - 20) =     23.39315  eV     1   --> B_g            
     e( 21 - 21) =     25.10211  eV     1   --> A_g            
     e( 22 - 22) =     25.10480  eV     1   --> B_g            
     e( 23 - 23) =     26.37246  eV     1   --> B_u            
     e( 24 - 24) =     26.37540  eV     1   --> A_u            
     e( 25 - 25) =     26.85891  eV     1   --> A_g            
     e( 26 - 26) =     26.86334  eV     1   --> B_g            
     e( 27 - 27) =     27.13938  eV     1   --> A_g            
     e( 28 - 28) =     31.54583  eV     1   --> B_u            
     e( 29 - 29) =     31.59522  eV     1   --> B_u            
     e( 30 - 30) =     31.60552  eV     1   --> A_u            
     e( 31 - 31) =     33.19033  eV     1   --> B_u            
     e( 32 - 32) =     33.87099  eV     1   --> A_g            
     e( 33 - 33) =     35.88067  eV     1   --> B_u            
     e( 34 - 34) =     37.24190  eV     1   --> B_u            
     e( 35 - 35) =     38.78367  eV     1   --> A_g            
     e( 36 - 36) =     40.66847  eV     1   --> A_g            
     e( 37 - 37) =     41.99734  eV     1   --> B_g            
     e( 38 - 38) =     42.98290  eV     1   --> A_g            
     e( 39 - 39) =     43.69972  eV     1   --> B_u            
     e( 40 - 40) =     45.27230  eV     1   --> B_u            

 **************************************************************************

 **************************************************************************

                    xk=(   0.08828,   0.61880,   0.08828  )

     point group C_s (m)    
     there are  2 classes
     the character table:

       E     s    
A'     1.00  1.00
A''    1.00 -1.00

     the symmetry operations in each class and the name of the first element:

     E        1
                                                                 
     s        2
                                                                 

     Band symmetry, C_s (m)     point group:

     e(  1 -  1) =    -46.78203  eV     1   --> A'             
     e(  2 -  2) =    -46.75620  eV     1   --> A'             
     e(  3 -  3) =    -18.92172  eV     1   --> A'             
     e(  4 -  4) =    -18.84099  eV     1   --> A'             
     e(  5 -  5) =    -18.83707  eV     1   --> A''            
     e(  6 -  6) =    -18.57311  eV     1   --> A'             
     e(  7 -  7) =    -18.57076  eV     1   --> A''            
     e(  8 -  8) =    -18.54724  eV     1   --> A'             
     e(  9 -  9) =    -11.18143  eV     1   --> A'             
     e( 10 - 10) =      2.07024  eV     1   --> A'             
     e( 11 - 11) =      2.84887  eV     1   --> A'             
     e( 12 - 12) =      2.98403  eV     1   --> A''            
     e( 13 - 13) =      8.14521  eV     1   --> A'             
     e( 14 - 14) =     12.08593  eV     1   --> A'             
     e( 15 - 15) =     13.13734  eV     1   --> A'             
     e( 16 - 16) =     14.70250  eV     1   --> A''            
     e( 17 - 17) =     15.06091  eV     1   --> A'             
     e( 18 - 18) =     17.85278  eV     1   --> A'             
     e( 19 - 19) =     20.45079  eV     1   --> A''            
     e( 20 - 20) =     23.27449  eV     1   --> A''            
     e( 21 - 21) =     24.24915  eV     1   --> A'             
     e( 22 - 22) =     24.89089  eV     1   --> A'             
     e( 23 - 23) =     25.35454  eV     1   --> A''            
     e( 24 - 24) =     26.40508  eV     1   --> A''            
     e( 25 - 25) =     26.72741  eV     1   --> A'             
     e( 26 - 26) =     27.96257  eV     1   --> A'             
     e( 27 - 27) =     28.36125  eV     1   --> A''            
     e( 28 - 28) =     30.94673  eV     1   --> A'             
     e( 29 - 29) =     32.31943  eV     1   --> A''            
     e( 30 - 30) =     32.55918  eV     1   --> A'             
     e( 31 - 31) =     32.97598  eV     1   --> A'             
     e( 32 - 32) =     34.99751  eV     1   --> A'             
     e( 33 - 33) =     35.63992  eV     1   --> A'             
     e( 34 - 34) =     36.46060  eV     1   --> A'             
     e( 35 - 35) =     39.76829  eV     1   --> A'             
     e( 36 - 36) =     40.11236  eV     1   --> A'             
     e( 37 - 37) =     40.69108  eV     1   --> A''            
     e( 38 - 38) =     42.51014  eV     1   --> A'             
     e( 39 - 39) =     43.15540  eV     1   --> A'             
     e( 40 - 40) =     43.87727  eV     1   --> A''            

 **************************************************************************

 **************************************************************************

                    xk=(   0.17668,   0.53036,   0.17668  )

     Band symmetry, C_s (m)     point group:

     e(  1 -  1) =    -46.77917  eV     1   --> A'             
     e(  2 -  2) =    -46.75940  eV     1   --> A'             
     e(  3 -  3) =    -18.87194  eV     1   --> A'             
     e(  4 -  4) =    -18.81558  eV     1   --> A'             
     e(  5 -  5) =    -18.80416  eV     1   --> A''            
     e(  6 -  6) =    -18.60915  eV     1   --> A'             
     e(  7 -  7) =    -18.59979  eV     1   --> A''            
     e(  8 -  8) =    -18.58263  eV     1   --> A'             
     e(  9 -  9) =    -11.20389  eV     1   --> A'             
     e( 10 - 10) =      2.07558  eV     1   --> A'             
     e( 11 - 11) =      2.79537  eV     1   --> A'             
     e( 12 - 12) =      3.05365  eV     1   --> A''            
     e( 13 - 13) =      8.59593  eV     1   --> A'             
     e( 14 - 14) =     11.33356  eV     1   --> A'             
     e( 15 - 15) =     12.97280  eV     1   --> A'             
     e( 16 - 16) =     14.46701  eV     1   --> A''            
     e( 17 - 17) =     16.10037  eV     1   --> A'             
     e( 18 - 18) =     19.24883  eV     1   --> A''            
     e( 19 - 19) =     19.54928  eV     1   --> A'             
     e( 20 - 20) =     21.65395  eV     1   --> A'             
     e( 21 - 21) =     22.63540  eV     1   --> A''            
     e( 22 - 22) =     24.12382  eV     1   --> A'             
     e( 23 - 23) =     25.24475  eV     1   --> A''            
     e( 24 - 24) =     25.92014  eV     1   --> A'             
     e( 25 - 25) =     27.76054  eV     1   --> A''            
     e( 26 - 26) =     28.49720  eV     1   --> A'             
     e( 27 - 27) =     30.79647  eV     1   --> A'             
     e( 28 - 28) =     31.31571  eV     1   --> A''            
     e( 29 - 29) =     32.20511  eV     1   --> A'             
     e( 30 - 30) =     33.63596  eV     1   --> A'             
     e( 31 - 31) =     34.20615  eV     1   --> A''            
     e( 32 - 32) =     34.67593  eV     1   --> A'             
     e( 33 - 33) =     35.64013  eV     1   --> A'             
     e( 34 - 34) =     37.44539  eV     1   --> A'             
     e( 35 - 35) =     37.77089  eV     1   --> A''            
     e( 36 - 36) =     38.43113  eV     1   --> A'             
     e( 37 - 37) =     40.81295  eV     1   --> A'             
     e( 38 - 38) =     42.72070  eV     1   --> A'             
     e( 39 - 39) =     43.15242  eV     1   --> A''            
     e( 40 - 40) =     43.83517  eV     1   --> A'             

 **************************************************************************

 **************************************************************************

                    xk=(   0.26509,   0.44193,   0.26509  )

     Band symmetry, C_s (m)     point group:

     e(  1 -  1) =    -46.77481  eV     1   --> A'             
     e(  2 -  2) =    -46.76406  eV     1   --> A'             
     e(  3 -  3) =    -18.80477  eV     1   --> A'             
     e(  4 -  4) =    -18.77121  eV     1   --> A'             
     e(  5 -  5) =    -18.75523  eV     1   --> A''            
     e(  6 -  6) =    -18.66133  eV     1   --> A'             
     e(  7 -  7) =    -18.64485  eV     1   --> A''            
     e(  8 -  8) =    -18.63756  eV     1   --> A'             
     e(  9 -  9) =    -11.22564  eV     1   --> A'             
     e( 10 - 10) =      1.87816  eV     1   --> A'             
     e( 11 - 11) =      3.02030  eV     1   --> A'             
     e( 12 - 12) =      3.12662  eV     1   --> A''            
     e( 13 - 13) =      9.06460  eV     1   --> A'             
     e( 14 - 14) =     10.32744  eV     1   --> A'             
     e( 15 - 15) =     13.56647  eV     1   --> A'             
     e( 16 - 16) =     14.18055  eV     1   --> A''            
     e( 17 - 17) =     17.48988  eV     1   --> A'             
     e( 18 - 18) =     18.55775  eV     1   --> A''            
     e( 19 - 19) =     19.32689  eV     1   --> A'             
     e( 20 - 20) =     21.22153  eV     1   --> A'             
     e( 21 - 21) =     22.07463  eV     1   --> A''            
     e( 22 - 22) =     22.83772  eV     1   --> A'             
     e( 23 - 23) =     25.13542  eV     1   --> A''            
     e( 24 - 24) =     25.22214  eV     1   --> A'             
     e( 25 - 25) =     29.10465  eV     1   --> A'             
     e( 26 - 26) =     29.51178  eV     1   --> A''            
     e( 27 - 27) =     30.97035  eV     1   --> A'             
     e( 28 - 28) =     31.98216  eV     1   --> A'             
     e( 29 - 29) =     32.78462  eV     1   --> A'             
     e( 30 - 30) =     33.27065  eV     1   --> A'             
     e( 31 - 31) =     34.49213  eV     1   --> A''            
     e( 32 - 32) =     35.29546  eV     1   --> A''            
     e( 33 - 33) =     35.48907  eV     1   --> A'             
     e( 34 - 34) =     37.02967  eV     1   --> A''            
     e( 35 - 35) =     38.15309  eV     1   --> A'             
     e( 36 - 36) =     38.67991  eV     1   --> A'             
     e( 37 - 37) =     42.14158  eV     1   --> A'             
     e( 38 - 38) =     42.67695  eV     1   --> A''            
     e( 39 - 39) =     43.47118  eV     1   --> A'             
     e( 40 - 40) =     43.79499  eV     1   --> A''            

 **************************************************************************

 **************************************************************************

                    xk=(   0.35349,   0.35349,   0.35349  )

     point group D_3d (-3m) 
     there are  6 classes
     the character table:

       E     2C3   3C2'  i     2S6   3s_d 
A_1g   1.00  1.00  1.00  1.00  1.00  1.00
A_2g   1.00  1.00 -1.00  1.00  1.00 -1.00
E_g    2.00 -1.00  0.00  2.00 -1.00  0.00
A_1u   1.00  1.00  1.00 -1.00 -1.00 -1.00
A_2u   1.00  1.00 -1.00 -1.00 -1.00  1.00
E_u    2.00 -1.00  0.00 -2.00  1.00  0.00

     the symmetry operations in each class and the name of the first element:

     E        1
                                                                 
     2C3      5    6
                                                                 
     3C2'     2    4    3
                                                                 
     i        7
                                                                 
     2S6     11   12
                                                                 
     3s_d     8   10    9
                                                                 

     Band symmetry, D_3d (-3m)  point group:

     e(  1 -  2) =    -46.76954  eV     2   --> A_1g L_1       
     e(  1 -  2) =    -46.76954  eV     2   --> A_2u L_2'      
     e(  3 -  3) =    -18.75457  eV     1   --> A_1g L_1       
     e(  4 -  4) =    -18.72066  eV     1   --> A_2u L_2'      
     e(  5 -  6) =    -18.70202  eV     2   --> E_u  L_3'      
     e(  7 -  8) =    -18.69677  eV     2   --> E_g  L_3       
     e(  9 -  9) =    -11.23444  eV     1   --> A_1g L_1       
     e( 10 - 10) =      1.77598  eV     1   --> A_2u L_2'      
     e( 11 - 12) =      3.15778  eV     2   --> E_u  L_3'      
     e( 13 - 13) =      9.41335  eV     1   --> A_2u L_2'      
     e( 14 - 14) =      9.74355  eV     1   --> A_1g L_1       
     e( 15 - 16) =     14.04778  eV     2   --> E_g  L_3       
     e( 17 - 17) =     18.30909  eV     1   --> A_2u L_2'      
     e( 18 - 19) =     18.35158  eV     2   --> E_u  L_3'      
     e( 20 - 21) =     21.86464  eV     2   --> E_g  L_3       
     e( 22 - 22) =     21.94925  eV     1   --> A_1g L_1       
     e( 23 - 24) =     25.10062  eV     2   --> E_u  L_3'      
     e( 25 - 25) =     29.50669  eV     1   --> A_2u L_2'      
     e( 26 - 27) =     30.96566  eV     2   --> E_g  L_3       
     e( 28 - 28) =     31.11285  eV     1   --> A_1g L_1       
     e( 29 - 30) =     32.86345  eV     2   --> E_u  L_3'      
     e( 31 - 31) =     33.37079  eV     1   --> A_2u L_2'      
     e( 32 - 32) =     34.47473  eV     1   --> A_1g L_1       
     e( 33 - 34) =     37.99894  eV     2   --> E_g  L_3       
     e( 35 - 36) =     39.57877  eV     2   --> E_u  L_3'      
     e( 37 - 37) =     40.99353  eV     1   --> A_1u L_1'      
     e( 38 - 38) =     41.93909  eV     1   --> A_2g L_2       
     e( 39 - 40) =     43.09849  eV     2   --> E_g  L_3       

 **************************************************************************

 **************************************************************************

                    xk=(   0.32401,   0.32401,   0.32401  )

     point group C_3v (3m)  
     there are  3 classes
     the character table:

       E     2C3   3s_v 
A_1    1.00  1.00  1.00
A_2    1.00  1.00 -1.00
E      2.00 -1.00  0.00

     the symmetry operations in each class and the name of the first element:

     E        1
                                                                 
     2C3      2    3
                                                                 
     3s_v     4    5    6
                                                                 

     Band symmetry, C_3v (3m)   point group:

     e(  1 -  1) =    -46.77503  eV     1   --> A_1  L_1       
     e(  2 -  2) =    -46.76398  eV     1   --> A_1  L_1       
     e(  3 -  3) =    -18.75642  eV     1   --> A_1  L_1       
     e(  4 -  4) =    -18.71652  eV     1   --> A_1  L_1       
     e(  5 -  6) =    -18.71270  eV     2   --> E    L_3       
     e(  7 -  8) =    -18.68544  eV     2   --> E    L_3       
     e(  9 -  9) =    -11.23805  eV     1   --> A_1  L_1       
     e( 10 - 10) =      1.78941  eV     1   --> A_1  L_1       
     e( 11 - 12) =      3.15859  eV     2   --> E    L_3       
     e( 13 - 13) =      9.06932  eV     1   --> A_1  L_1       
     e( 14 - 14) =     10.10949  eV     1   --> A_1  L_1       
     e( 15 - 16) =     14.06981  eV     2   --> E    L_3       
     e( 17 - 17) =     18.26973  eV     1   --> A_1  L_1       
     e( 18 - 19) =     18.30742  eV     2   --> E    L_3       
     e( 20 - 21) =     21.78861  eV     2   --> E    L_3       
     e( 22 - 22) =     22.03005  eV     1   --> A_1  L_1       
     e( 23 - 24) =     25.24905  eV     2   --> E    L_3       
     e( 25 - 25) =     29.19341  eV     1   --> A_1  L_1       
     e( 26 - 27) =     30.51918  eV     2   --> E    L_3       
     e( 28 - 28) =     31.37718  eV     1   --> A_1  L_1       
     e( 29 - 29) =     32.61394  eV     1   --> A_1  L_1       
     e( 30 - 31) =     33.39197  eV     2   --> E    L_3       
     e( 32 - 32) =     35.28978  eV     1   --> A_1  L_1       
     e( 33 - 34) =     37.83057  eV     2   --> E    L_3       
     e( 35 - 36) =     39.79413  eV     2   --> E    L_3       
     e( 37 - 37) =     40.71875  eV     1   --> A_2  L_2       
     e( 38 - 38) =     42.26478  eV     1   --> A_2  L_2       
     e( 39 - 40) =     43.11766  eV     2   --> E    L_3       

 **************************************************************************

 **************************************************************************

                    xk=(   0.29460,   0.29460,   0.29460  )

     Band symmetry, C_3v (3m)   point group:

     e(  1 -  1) =    -46.78049  eV     1   --> A_1  L_1       
     e(  2 -  2) =    -46.75864  eV     1   --> A_1  L_1       
     e(  3 -  3) =    -18.76181  eV     1   --> A_1  L_1       
     e(  4 -  5) =    -18.72539  eV     2   --> E    L_3       
     e(  6 -  6) =    -18.70711  eV     1   --> A_1  L_1       
     e(  7 -  8) =    -18.67206  eV     2   --> E    L_3       
     e(  9 -  9) =    -11.24861  eV     1   --> A_1  L_1       
     e( 10 - 10) =      1.82988  eV     1   --> A_1  L_1       
     e( 11 - 12) =      3.16052  eV     2   --> E    L_3       
     e( 13 - 13) =      8.61888  eV     1   --> A_1  L_1       
     e( 14 - 14) =     10.62263  eV     1   --> A_1  L_1       
     e( 15 - 16) =     14.13480  eV     2   --> E    L_3       
     e( 17 - 17) =     18.16579  eV     1   --> A_1  L_1       
     e( 18 - 19) =     18.18168  eV     2   --> E    L_3       
     e( 20 - 21) =     21.58757  eV     2   --> E    L_3       
     e( 22 - 22) =     22.25469  eV     1   --> A_1  L_1       
     e( 23 - 24) =     25.65780  eV     2   --> E    L_3       
     e( 25 - 25) =     28.54356  eV     1   --> A_1  L_1       
     e( 26 - 27) =     29.73348  eV     2   --> E    L_3       
     e( 28 - 28) =     31.43155  eV     1   --> A_1  L_1       
     e( 29 - 29) =     32.00161  eV     1   --> A_1  L_1       
     e( 30 - 31) =     34.42202  eV     2   --> E    L_3       
     e( 32 - 32) =     36.51078  eV     1   --> A_1  L_1       
     e( 33 - 34) =     37.47628  eV     2   --> E    L_3       
     e( 35 - 35) =     40.25791  eV     1   --> A_2  L_2       
     e( 36 - 37) =     40.28898  eV     2   --> E    L_3       
     e( 38 - 38) =     42.87786  eV     1   --> A_2  L_2       
     e( 39 - 40) =     43.17291  eV     2   --> E    L_3       

 **************************************************************************

 **************************************************************************

                    xk=(   0.26512,   0.26512,   0.26512  )

     Band symmetry, C_3v (3m)   point group:

     e(  1 -  1) =    -46.78580  eV     1   --> A_1  L_1       
     e(  2 -  2) =    -46.75353  eV     1   --> A_1  L_1       
     e(  3 -  3) =    -18.76791  eV     1   --> A_1  L_1       
     e(  4 -  5) =    -18.73788  eV     2   --> E    L_3       
     e(  6 -  6) =    -18.69442  eV     1   --> A_1  L_1       
     e(  7 -  8) =    -18.65890  eV     2   --> E    L_3       
     e(  9 -  9) =    -11.26550  eV     1   --> A_1  L_1       
     e( 10 - 10) =      1.89766  eV     1   --> A_1  L_1       
     e( 11 - 12) =      3.16344  eV     2   --> E    L_3       
     e( 13 - 13) =      8.17315  eV     1   --> A_1  L_1       
     e( 14 - 14) =     11.17152  eV     1   --> A_1  L_1       
     e( 15 - 16) =     14.24283  eV     2   --> E    L_3       
     e( 17 - 18) =     17.99187  eV     2   --> E    L_3       
     e( 19 - 19) =     18.02807  eV     1   --> A_1  L_1       
     e( 20 - 21) =     21.30561  eV     2   --> E    L_3       
     e( 22 - 22) =     22.58561  eV     1   --> A_1  L_1       
     e( 23 - 24) =     26.26102  eV     2   --> E    L_3       
     e( 25 - 25) =     27.78821  eV     1   --> A_1  L_1       
     e( 26 - 27) =     28.95377  eV     2   --> E    L_3       
     e( 28 - 28) =     30.42179  eV     1   --> A_1  L_1       
     e( 29 - 29) =     32.49838  eV     1   --> A_1  L_1       
     e( 30 - 31) =     35.60882  eV     2   --> E    L_3       
     e( 32 - 33) =     37.08702  eV     2   --> E    L_3       
     e( 34 - 34) =     37.78298  eV     1   --> A_1  L_1       
     e( 35 - 35) =     39.80181  eV     1   --> A_2  L_2       
     e( 36 - 37) =     40.91408  eV     2   --> E    L_3       
     e( 38 - 38) =     43.08871  eV     1   --> A_1  L_1       
     e( 39 - 40) =     43.26049  eV     2   --> E    L_3       

 **************************************************************************

 **************************************************************************

                    xk=(   0.23564,   0.23564,   0.23564  )

     Band symmetry, C_3v (3m)   point group:

     e(  1 -  1) =    -46.79086  eV     1   --> A_1  L_1       
     e(  2 -  2) =    -46.74869  eV     1   --> A_1  L_1       
     e(  3 -  3) =    -18.77360  eV     1   --> A_1  L_1       
     e(  4 -  5) =    -18.74932  eV     2   --> E    L_3       
     e(  6 -  6) =    -18.67979  eV     1   --> A_1  L_1       
     e(  7 -  8) =    -18.64629  eV     2   --> E    L_3       
     e(  9 -  9) =    -11.28761  eV     1   --> A_1  L_1       
     e( 10 - 10) =      1.99260  eV     1   --> A_1  L_1       
     e( 11 - 12) =      3.16733  eV     2   --> E    L_3       
     e( 13 - 13) =      7.73668  eV     1   --> A_1  L_1       
     e( 14 - 14) =     11.74949  eV     1   --> A_1  L_1       
     e( 15 - 16) =     14.39360  eV     2   --> E    L_3       
     e( 17 - 18) =     17.76271  eV     2   --> E    L_3       
     e( 19 - 19) =     17.88712  eV     1   --> A_1  L_1       
     e( 20 - 21) =     20.96966  eV     2   --> E    L_3       
     e( 22 - 22) =     22.97716  eV     1   --> A_1  L_1       
     e( 23 - 24) =     26.99383  eV     2   --> E    L_3       
     e( 25 - 25) =     26.99743  eV     1   --> A_1  L_1       
     e( 26 - 27) =     28.26594  eV     2   --> E    L_3       
     e( 28 - 28) =     29.43906  eV     1   --> A_1  L_1       
     e( 29 - 29) =     32.97838  eV     1   --> A_1  L_1       
     e( 30 - 31) =     36.67967  eV     2   --> E    L_3       
     e( 32 - 33) =     36.90887  eV     2   --> E    L_3       
     e( 34 - 34) =     39.04004  eV     1   --> A_1  L_1       
     e( 35 - 35) =     39.38303  eV     1   --> A_2  L_2       
     e( 36 - 37) =     41.61572  eV     2   --> E    L_3       
     e( 38 - 38) =     42.87845  eV     1   --> A_1  L_1       
     e( 39 - 40) =     43.37104  eV     2   --> E    L_3       

 **************************************************************************

 **************************************************************************

                    xk=(   0.20623,   0.20623,   0.20623  )

     Band symmetry, C_3v (3m)   point group:

     e(  1 -  1) =    -46.79557  eV     1   --> A_1  L_1       
     e(  2 -  2) =    -46.74425  eV     1   --> A_1  L_1       
     e(  3 -  3) =    -18.77874  eV     1   --> A_1  L_1       
     e(  4 -  5) =    -18.75977  eV     2   --> E    L_3       
     e(  6 -  6) =    -18.66402  eV     1   --> A_1  L_1       
     e(  7 -  8) =    -18.63456  eV     2   --> E    L_3       
     e(  9 -  9) =    -11.31341  eV     1   --> A_1  L_1       
     e( 10 - 10) =      2.11433  eV     1   --> A_1  L_1       
     e( 11 - 12) =      3.17180  eV     2   --> E    L_3       
     e( 13 - 13) =      7.31063  eV     1   --> A_1  L_1       
     e( 14 - 14) =     12.35204  eV     1   --> A_1  L_1       
     e( 15 - 16) =     14.58553  eV     2   --> E    L_3       
     e( 17 - 18) =     17.51849  eV     2   --> E    L_3       
     e( 19 - 19) =     17.76330  eV     1   --> A_1  L_1       
     e( 20 - 21) =     20.58955  eV     2   --> E    L_3       
     e( 22 - 22) =     23.37615  eV     1   --> A_1  L_1       
     e( 23 - 23) =     26.21392  eV     1   --> A_1  L_1       
     e( 24 - 25) =     27.50210  eV     2   --> E    L_3       
     e( 26 - 27) =     28.01041  eV     2   --> E    L_3       
     e( 28 - 28) =     28.54021  eV     1   --> A_1  L_1       
     e( 29 - 29) =     33.37044  eV     1   --> A_1  L_1       
     e( 30 - 31) =     36.36860  eV     2   --> E    L_3       
     e( 32 - 33) =     38.18868  eV     2   --> E    L_3       
     e( 34 - 34) =     39.01027  eV     1   --> A_2  L_2       
     e( 35 - 35) =     40.20759  eV     1   --> A_1  L_1       
     e( 36 - 37) =     42.37409  eV     2   --> E    L_3       
     e( 38 - 38) =     42.63517  eV     1   --> A_1  L_1       
     e( 39 - 40) =     43.48248  eV     2   --> E    L_3       

 **************************************************************************

 **************************************************************************

                    xk=(   0.17675,   0.17675,   0.17675  )

     Band symmetry, C_3v (3m)   point group:

     e(  1 -  1) =    -46.79992  eV     1   --> A_1  L_1       
     e(  2 -  2) =    -46.74025  eV     1   --> A_1  L_1       
     e(  3 -  3) =    -18.78327  eV     1   --> A_1  L_1       
     e(  4 -  5) =    -18.76926  eV     2   --> E    L_3       
     e(  6 -  6) =    -18.64845  eV     1   --> A_1  L_1       
     e(  7 -  8) =    -18.62412  eV     2   --> E    L_3       
     e(  9 -  9) =    -11.34132  eV     1   --> A_1  L_1       
     e( 10 - 10) =      2.26197  eV     1   --> A_1  L_1       
     e( 11 - 12) =      3.17643  eV     2   --> E    L_3       
     e( 13 - 13) =      6.89356  eV     1   --> A_1  L_1       
     e( 14 - 14) =     12.97839  eV     1   --> A_1  L_1       
     e( 15 - 16) =     14.81763  eV     2   --> E    L_3       
     e( 17 - 18) =     17.27850  eV     2   --> E    L_3       
     e( 19 - 19) =     17.66499  eV     1   --> A_1  L_1       
     e( 20 - 21) =     20.16720  eV     2   --> E    L_3       
     e( 22 - 22) =     23.69463  eV     1   --> A_1  L_1       
     e( 23 - 23) =     25.51234  eV     1   --> A_1  L_1       
     e( 24 - 25) =     27.09008  eV     2   --> E    L_3       
     e( 26 - 26) =     27.73351  eV     1   --> A_1  L_1       
     e( 27 - 28) =     28.86684  eV     2   --> E    L_3       
     e( 29 - 29) =     33.65901  eV     1   --> A_1  L_1       
     e( 30 - 31) =     36.07718  eV     2   --> E    L_3       
     e( 32 - 32) =     38.68453  eV     1   --> A_2  L_2       
     e( 33 - 34) =     39.50378  eV     2   --> E    L_3       
     e( 35 - 35) =     41.14730  eV     1   --> A_1  L_1       
     e( 36 - 36) =     42.47493  eV     1   --> A_1  L_1       
     e( 37 - 38) =     43.17409  eV     2   --> E    L_3       
     e( 39 - 40) =     43.54311  eV     2   --> E    L_3       

 **************************************************************************

 **************************************************************************

                    xk=(   0.14726,   0.14726,   0.14726  )

     Band symmetry, C_3v (3m)   point group:

     e(  1 -  1) =    -46.80370  eV     1   --> A_1  L_1       
     e(  2 -  2) =    -46.73679  eV     1   --> A_1  L_1       
     e(  3 -  3) =    -18.78733  eV     1   --> A_1  L_1       
     e(  4 -  5) =    -18.77775  eV     2   --> E    L_3       
     e(  6 -  6) =    -18.63311  eV     1   --> A_1  L_1       
     e(  7 -  8) =    -18.61453  eV     2   --> E    L_3       
     e(  9 -  9) =    -11.36940  eV     1   --> A_1  L_1       
     e( 10 - 10) =      2.43254  eV     1   --> A_1  L_1       
     e( 11 - 12) =      3.18122  eV     2   --> E    L_3       
     e( 13 - 13) =      6.49036  eV     1   --> A_1  L_1       
     e( 14 - 14) =     13.62024  eV     1   --> A_1  L_1       
     e( 15 - 16) =     15.08653  eV     2   --> E    L_3       
     e( 17 - 18) =     17.06035  eV     2   --> E    L_3       
     e( 19 - 19) =     17.59072  eV     1   --> A_1  L_1       
     e( 20 - 21) =     19.70919  eV     2   --> E    L_3       
     e( 22 - 22) =     23.69296  eV     1   --> A_1  L_1       
     e( 23 - 23) =     25.13035  eV     1   --> A_1  L_1       
     e( 24 - 25) =     26.70029  eV     2   --> E    L_3       
     e( 26 - 26) =     27.02883  eV     1   --> A_1  L_1       
     e( 27 - 28) =     29.87182  eV     2   --> E    L_3       
     e( 29 - 29) =     33.84556  eV     1   --> A_1  L_1       
     e( 30 - 31) =     35.83709  eV     2   --> E    L_3       
     e( 32 - 32) =     38.40803  eV     1   --> A_2  L_2       
     e( 33 - 34) =     40.77604  eV     2   --> E    L_3       
     e( 35 - 35) =     41.51739  eV     1   --> A_1  L_1       
     e( 36 - 36) =     42.72700  eV     1   --> A_1  L_1       
     e( 37 - 38) =     43.23050  eV     2   --> E    L_3       
     e( 39 - 40) =     44.10910  eV     2   --> E    L_3       

 **************************************************************************

 **************************************************************************

                    xk=(   0.11785,   0.11785,   0.11785  )

     Band symmetry, C_3v (3m)   point group:

     e(  1 -  1) =    -46.80690  eV     1   --> A_1  L_1       
     e(  2 -  2) =    -46.73389  eV     1   --> A_1  L_1       
     e(  3 -  3) =    -18.79071  eV     1   --> A_1  L_1       
     e(  4 -  5) =    -18.78468  eV     2   --> E    L_3       
     e(  6 -  6) =    -18.61922  eV     1   --> A_1  L_1       
     e(  7 -  8) =    -18.60644  eV     2   --> E    L_3       
     e(  9 -  9) =    -11.39565  eV     1   --> A_1  L_1       
     e( 10 - 10) =      2.62024  eV     1   --> A_1  L_1       
     e( 11 - 12) =      3.18565  eV     2   --> E    L_3       
     e( 13 - 13) =      6.10870  eV     1   --> A_1  L_1       
     e( 14 - 14) =     14.26499  eV     1   --> A_1  L_1       
     e( 15 - 16) =     15.38510  eV     2   --> E    L_3       
     e( 17 - 18) =     16.88113  eV     2   --> E    L_3       
     e( 19 - 19) =     17.52987  eV     1   --> A_1  L_1       
     e( 20 - 21) =     19.22643  eV     2   --> E    L_3       
     e( 22 - 22) =     23.22687  eV     1   --> A_1  L_1       
     e( 23 - 23) =     25.21658  eV     1   --> A_1  L_1       
     e( 24 - 25) =     26.39774  eV     2   --> E    L_3       
     e( 26 - 26) =     26.43426  eV     1   --> A_1  L_1       
     e( 27 - 28) =     30.92824  eV     2   --> E    L_3       
     e( 29 - 29) =     33.94510  eV     1   --> A_1  L_1       
     e( 30 - 31) =     35.65948  eV     2   --> E    L_3       
     e( 32 - 32) =     38.18185  eV     1   --> A_2  L_2       
     e( 33 - 33) =     41.40573  eV     1   --> A_1  L_1       
     e( 34 - 35) =     41.91966  eV     2   --> E    L_3       
     e( 36 - 37) =     42.32826  eV     2   --> E    L_3       
     e( 38 - 38) =     43.34729  eV     1   --> A_1  L_1       
     e( 39 - 40) =     44.90479  eV     2   --> E    L_3       

 **************************************************************************

 **************************************************************************

                    xk=(   0.08837,   0.08837,   0.08837  )

     Band symmetry, C_3v (3m)   point group:

     e(  1 -  1) =    -46.80945  eV     1   --> A_1  L_1       
     e(  2 -  2) =    -46.73159  eV     1   --> A_1  L_1       
     e(  3 -  3) =    -18.79374  eV     1   --> A_1  L_1       
     e(  4 -  5) =    -18.79015  eV     2   --> E    L_3       
     e(  6 -  6) =    -18.60734  eV     1   --> A_1  L_1       
     e(  7 -  8) =    -18.59992  eV     2   --> E    L_3       
     e(  9 -  9) =    -11.41836  eV     1   --> A_1  L_1       
     e( 10 - 10) =      2.81569  eV     1   --> A_1  L_1       
     e( 11 - 12) =      3.18947  eV     2   --> E    L_3       
     e( 13 - 13) =      5.75890  eV     1   --> A_1  L_1       
     e( 14 - 14) =     14.89690  eV     1   --> A_1  L_1       
     e( 15 - 16) =     15.69814  eV     2   --> E    L_3       
     e( 17 - 18) =     16.76086  eV     2   --> E    L_3       
     e( 19 - 19) =     17.46253  eV     1   --> A_1  L_1       
     e( 20 - 21) =     18.72967  eV     2   --> E    L_3       
     e( 22 - 22) =     22.61673  eV     1   --> A_1  L_1       
     e( 23 - 23) =     25.46349  eV     1   --> A_1  L_1       
     e( 24 - 24) =     25.95451  eV     1   --> A_1  L_1       
     e( 25 - 26) =     26.17553  eV     2   --> E    L_3       
     e( 27 - 28) =     31.99979  eV     2   --> E    L_3       
     e( 29 - 29) =     33.98289  eV     1   --> A_1  L_1       
     e( 30 - 31) =     35.56570  eV     2   --> E    L_3       
     e( 32 - 32) =     38.00526  eV     1   --> A_2  L_2       
     e( 33 - 34) =     41.03522  eV     2   --> E    L_3       
     e( 35 - 35) =     41.21273  eV     1   --> A_1  L_1       
     e( 36 - 37) =     42.85152  eV     2   --> E    L_3       
     e( 38 - 38) =     43.99345  eV     1   --> A_1  L_1       
     e( 39 - 40) =     44.93220  eV     2   --> E    L_3       

 **************************************************************************

 **************************************************************************

                    xk=(   0.05889,   0.05889,   0.05889  )

     Band symmetry, C_3v (3m)   point group:

     e(  1 -  1) =    -46.81134  eV     1   --> A_1  L_1       
     e(  2 -  2) =    -46.72992  eV     1   --> A_1  L_1       
     e(  3 -  3) =    -18.79608  eV     1   --> A_1  L_1       
     e(  4 -  5) =    -18.79402  eV     2   --> E    L_3       
     e(  6 -  6) =    -18.59868  eV     1   --> A_1  L_1       
     e(  7 -  8) =    -18.59517  eV     2   --> E    L_3       
     e(  9 -  9) =    -11.43585  eV     1   --> A_1  L_1       
     e( 10 - 10) =      2.99958  eV     1   --> A_1  L_1       
     e( 11 - 12) =      3.19235  eV     2   --> E    L_3       
     e( 13 - 13) =      5.46275  eV     1   --> A_1  L_1       
     e( 14 - 14) =     15.48167  eV     1   --> A_1  L_1       
     e( 15 - 16) =     15.97816  eV     2   --> E    L_3       
     e( 17 - 18) =     16.74657  eV     2   --> E    L_3       
     e( 19 - 19) =     17.36497  eV     1   --> A_1  L_1       
     e( 20 - 21) =     18.23549  eV     2   --> E    L_3       
     e( 22 - 22) =     22.07201  eV     1   --> A_1  L_1       
     e( 23 - 23) =     25.59343  eV     1   --> A_1  L_1       
     e( 24 - 24) =     25.69931  eV     1   --> A_1  L_1       
     e( 25 - 26) =     26.02536  eV     2   --> E    L_3       
     e( 27 - 28) =     32.99749  eV     2   --> E    L_3       
     e( 29 - 29) =     33.98534  eV     1   --> A_1  L_1       
     e( 30 - 31) =     35.61571  eV     2   --> E    L_3       
     e( 32 - 32) =     37.87904  eV     1   --> A_2  L_2       
     e( 33 - 34) =     39.69052  eV     2   --> E    L_3       
     e( 35 - 35) =     41.04634  eV     1   --> A_1  L_1       
     e( 36 - 37) =     43.49440  eV     2   --> E    L_3       
     e( 38 - 38) =     44.56293  eV     1   --> A_1  L_1       
     e( 39 - 40) =     45.03384  eV     2   --> E    L_3       

 **************************************************************************

 **************************************************************************

                    xk=(   0.02948,   0.02948,   0.02948  )

     Band symmetry, C_3v (3m)   point group:

     e(  1 -  1) =    -46.81246  eV     1   --> A_1  L_1       
     e(  2 -  2) =    -46.72889  eV     1   --> A_1  L_1       
     e(  3 -  3) =    -18.79702  eV     1   --> A_1  L_1       
     e(  4 -  5) =    -18.79635  eV     2   --> E    L_3       
     e(  6 -  6) =    -18.59334  eV     1   --> A_1  L_1       
     e(  7 -  8) =    -18.59213  eV     2   --> E    L_3       
     e(  9 -  9) =    -11.44684  eV     1   --> A_1  L_1       
     e( 10 - 10) =      3.13941  eV     1   --> A_1  L_1       
     e( 11 - 12) =      3.19419  eV     2   --> E    L_3       
     e( 13 - 13) =      5.25497  eV     1   --> A_1  L_1       
     e( 14 - 14) =     15.95474  eV     1   --> A_1  L_1       
     e( 15 - 16) =     16.13687  eV     2   --> E    L_3       
     e( 17 - 18) =     16.91502  eV     2   --> E    L_3       
     e( 19 - 19) =     17.23109  eV     1   --> A_1  L_1       
     e( 20 - 21) =     17.76702  eV     2   --> E    L_3       
     e( 22 - 22) =     21.69693  eV     1   --> A_1  L_1       
     e( 23 - 23) =     25.38077  eV     1   --> A_1  L_1       
     e( 24 - 24) =     25.84743  eV     1   --> A_1  L_1       
     e( 25 - 26) =     25.93929  eV     2   --> E    L_3       
     e( 27 - 28) =     33.72042  eV     2   --> E    L_3       
     e( 29 - 29) =     33.97611  eV     1   --> A_1  L_1       
     e( 30 - 31) =     35.93332  eV     2   --> E    L_3       
     e( 32 - 32) =     37.80345  eV     1   --> A_2  L_2       
     e( 33 - 34) =     38.45546  eV     2   --> E    L_3       
     e( 35 - 35) =     40.93806  eV     1   --> A_1  L_1       
     e( 36 - 37) =     43.85708  eV     2   --> E    L_3       
     e( 38 - 38) =     44.97160  eV     1   --> A_1  L_1       
     e( 39 - 40) =     45.11736  eV     2   --> E    L_3       

 **************************************************************************

 **************************************************************************

                    xk=(   0.00000,   0.00000,   0.00000  )

     point group D_3d (-3m) 
     there are  6 classes
     the character table:

       E     2C3   3C2'  i     2S6   3s_d 
A_1g   1.00  1.00  1.00  1.00  1.00  1.00
A_2g   1.00  1.00 -1.00  1.00  1.00 -1.00
E_g    2.00 -1.00  0.00  2.00 -1.00  0.00
A_1u   1.00  1.00  1.00 -1.00 -1.00 -1.00
A_2u   1.00  1.00 -1.00 -1.00 -1.00  1.00
E_u    2.00 -1.00  0.00 -2.00  1.00  0.00

     the symmetry operations in each class and the name of the first element:

     E        1
                                                                 
     2C3      5    6
                                                                 
     3C2'     2    4    3
                                                                 
     i        7
                                                                 
     2S6     11   12
                                                                 
     3s_d     8   10    9
                                                                 

     Band symmetry, D_3d (-3m)  point group:

     e(  1 -  1) =    -46.81280  eV     1   --> A_1g L_1       
     e(  2 -  2) =    -46.72855  eV     1   --> A_2u L_2'      
     e(  3 -  3) =    -18.79741  eV     1   --> A_1g L_1       
     e(  4 -  5) =    -18.79713  eV     2   --> E_g  L_3       
     e(  6 -  8) =    -18.59099  eV     3   --> A_2u L_2'      
     e(  6 -  8) =    -18.59099  eV     3   --> E_u  L_3'      
     e(  9 -  9) =    -11.45061  eV     1   --> A_1g L_1       
     e( 10 - 10) =      3.19371  eV     1   --> A_2u L_2'      
     e( 11 - 12) =      3.19483  eV     2   --> E_u  L_3'      
     e( 13 - 13) =      5.17785  eV     1   --> A_1g L_1       
     e( 14 - 14) =     16.16396  eV     1   --> A_1g L_1       
     e( 15 - 16) =     16.17445  eV     2   --> E_g  L_3       
     e( 17 - 17) =     17.14504  eV     1   --> A_2u L_2'      
     e( 18 - 19) =     17.15107  eV     2   --> E_u  L_3'      
     e( 20 - 21) =     17.44538  eV     2   --> E_g  L_3       
     e( 22 - 22) =     21.56183  eV     1   --> A_1g L_1       
     e( 23 - 23) =     25.30737  eV     1   --> A_2u L_2'      
     e( 24 - 24) =     25.90223  eV     1   --> A_2u L_2'      
     e( 25 - 26) =     25.91145  eV     2   --> E_u  L_3'      
     e( 27 - 28) =     33.96720  eV     2   --> E_g  L_3       
     e( 29 - 29) =     33.97120  eV     1   --> A_1g L_1       
     e( 30 - 31) =     36.31542  eV     2   --> E_g  L_3       
     e( 32 - 33) =     37.75953  eV     2   --> E_u  L_3'      
     e( 34 - 34) =     37.77816  eV     1   --> A_1u L_1'      
     e( 35 - 35) =     40.90054  eV     1   --> A_1g L_1       
     e( 36 - 37) =     43.97332  eV     2   --> E_u  L_3'      
     e( 38 - 38) =     45.12514  eV     1   --> A_2u L_2'      
     e( 39 - 40) =     45.14835  eV     2   --> E_u  L_3'      

 **************************************************************************

 **************************************************************************

                    xk=(   0.04420,  -0.04422,   0.04420  )

     point group C_s (m)    
     there are  2 classes
     the character table:

       E     s    
A'     1.00  1.00
A''    1.00 -1.00

     the symmetry operations in each class and the name of the first element:

     E        1
                                                                 
     s        2
                                                                 

     Band symmetry, C_s (m)     point group:

     e(  1 -  1) =    -46.81202  eV     1   --> A'             
     e(  2 -  2) =    -46.72932  eV     1   --> A'             
     e(  3 -  3) =    -18.79630  eV     1   --> A'             
[...]
     e( 13 - 13) =      9.41500  eV     1   --> B_u            
     e( 14 - 14) =      9.74432  eV     1   --> A_g            
     e( 15 - 15) =     14.04019  eV     1   --> A_g            
     e( 16 - 16) =     14.04520  eV     1   --> B_g            
     e( 17 - 17) =     18.30889  eV     1   --> B_u            
     e( 18 - 18) =     18.34598  eV     1   --> B_u            
     e( 19 - 19) =     18.35353  eV     1   --> A_u            
     e( 20 - 20) =     21.86256  eV     1   --> A_g            
     e( 21 - 21) =     21.87348  eV     1   --> B_g            
     e( 22 - 22) =     21.95733  eV     1   --> A_g            
     e( 23 - 23) =     25.09282  eV     1   --> B_u            
     e( 24 - 24) =     25.10500  eV     1   --> A_u            
     e( 25 - 25) =     29.51632  eV     1   --> B_u            
     e( 26 - 26) =     30.97324  eV     1   --> B_g            
     e( 27 - 27) =     30.97882  eV     1   --> A_g            
     e( 28 - 28) =     31.10754  eV     1   --> A_g            
     e( 29 - 29) =     32.87169  eV     1   --> A_u            
     e( 30 - 30) =     32.87186  eV     1   --> B_u            
     e( 31 - 31) =     33.38205  eV     1   --> B_u            
     e( 32 - 32) =     34.49775  eV     1   --> A_g            
     e( 33 - 33) =     37.97587  eV     1   --> B_g            
     e( 34 - 34) =     37.99545  eV     1   --> A_g            
     e( 35 - 35) =     39.55807  eV     1   --> A_u            
     e( 36 - 36) =     39.57616  eV     1   --> B_u            
     e( 37 - 37) =     40.97988  eV     1   --> A_u            
     e( 38 - 38) =     41.92645  eV     1   --> B_g            
     e( 39 - 39) =     43.07330  eV     1   --> A_g            
     e( 40 - 40) =     43.09227  eV     1   --> B_g            

 **************************************************************************

 **************************************************************************

                    xk=(   0.41253,  -0.29483,   0.29468  )

     point group C_1 (1)    
     there are  1 classes
     the character table:

       E    
A      1.00

     the symmetry operations in each class and the name of the first element:

     E        1
                                                                 

     Band symmetry, C_1 (1)     point group:

     e(  1 -  1) =    -46.77310  eV     1   --> A              
     e(  2 -  2) =    -46.76584  eV     1   --> A              
     e(  3 -  3) =    -18.78250  eV     1   --> A              
     e(  4 -  4) =    -18.75246  eV     1   --> A              
     e(  5 -  5) =    -18.73724  eV     1   --> A              
     e(  6 -  6) =    -18.68002  eV     1   --> A              
     e(  7 -  7) =    -18.66218  eV     1   --> A              
     e(  8 -  8) =    -18.65894  eV     1   --> A              
     e(  9 -  9) =    -11.23017  eV     1   --> A              
     e( 10 - 10) =      1.82427  eV     1   --> A              
     e( 11 - 11) =      3.09208  eV     1   --> A              
     e( 12 - 12) =      3.14259  eV     1   --> A              
     e( 13 - 13) =      9.20851  eV     1   --> A              
     e( 14 - 14) =     10.05937  eV     1   --> A              
     e( 15 - 15) =     13.79739  eV     1   --> A              
     e( 16 - 16) =     14.10316  eV     1   --> A              
     e( 17 - 17) =     17.91430  eV     1   --> A              
     e( 18 - 18) =     18.43764  eV     1   --> A              
     e( 19 - 19) =     18.79928  eV     1   --> A              
     e( 20 - 20) =     21.57626  eV     1   --> A              
     e( 21 - 21) =     21.95999  eV     1   --> A              
     e( 22 - 22) =     22.40504  eV     1   --> A              
     e( 23 - 23) =     25.11055  eV     1   --> A              
     e( 24 - 24) =     25.14161  eV     1   --> A              
     e( 25 - 25) =     29.30334  eV     1   --> A              
     e( 26 - 26) =     30.13980  eV     1   --> A              
     e( 27 - 27) =     30.99276  eV     1   --> A              
     e( 28 - 28) =     31.57726  eV     1   --> A              
     e( 29 - 29) =     32.81539  eV     1   --> A              
     e( 30 - 30) =     33.22846  eV     1   --> A              
     e( 31 - 31) =     33.85927  eV     1   --> A              
     e( 32 - 32) =     35.03947  eV     1   --> A              
     e( 33 - 33) =     36.37527  eV     1   --> A              
     e( 34 - 34) =     38.01906  eV     1   --> A              
     e( 35 - 35) =     38.06878  eV     1   --> A              
     e( 36 - 36) =     39.14273  eV     1   --> A              
     e( 37 - 37) =     42.21287  eV     1   --> A              
     e( 38 - 38) =     42.56548  eV     1   --> A              
     e( 39 - 39) =     43.07833  eV     1   --> A              
     e( 40 - 40) =     43.37238  eV     1   --> A              

 **************************************************************************

 **************************************************************************

                    xk=(   0.47151,  -0.23584,   0.23568  )

     Band symmetry, C_1 (1)     point group:

     e(  1 -  1) =    -46.77639  eV     1   --> A              
     e(  2 -  2) =    -46.76239  eV     1   --> A              
     e(  3 -  3) =    -18.82780  eV     1   --> A              
     e(  4 -  4) =    -18.78815  eV     1   --> A              
     e(  5 -  5) =    -18.77289  eV     1   --> A              
     e(  6 -  6) =    -18.64278  eV     1   --> A              
     e(  7 -  7) =    -18.62842  eV     1   --> A              
     e(  8 -  8) =    -18.61756  eV     1   --> A              
     e(  9 -  9) =    -11.21913  eV     1   --> A              
     e( 10 - 10) =      1.94730  eV     1   --> A              
     e( 11 - 11) =      2.93564  eV     1   --> A              
     e( 12 - 12) =      3.10387  eV     1   --> A              
     e( 13 - 13) =      8.91594  eV     1   --> A              
     e( 14 - 14) =     10.63961  eV     1   --> A              
     e( 15 - 15) =     13.32653  eV     1   --> A              
     e( 16 - 16) =     14.26372  eV     1   --> A              
     e( 17 - 17) =     17.02277  eV     1   --> A              
     e( 18 - 18) =     18.72497  eV     1   --> A              
     e( 19 - 19) =     19.93304  eV     1   --> A              
     e( 20 - 20) =     20.81660  eV     1   --> A              
     e( 21 - 21) =     22.23082  eV     1   --> A              
     e( 22 - 22) =     23.31291  eV     1   --> A              
     e( 23 - 23) =     25.15914  eV     1   --> A              
     e( 24 - 24) =     25.38195  eV     1   --> A              
     e( 25 - 25) =     28.90524  eV     1   --> A              
     e( 26 - 26) =     28.90955  eV     1   --> A              
     e( 27 - 27) =     30.93677  eV     1   --> A              
     e( 28 - 28) =     32.18589  eV     1   --> A              
     e( 29 - 29) =     32.98291  eV     1   --> A              
     e( 30 - 30) =     33.53750  eV     1   --> A              
     e( 31 - 31) =     33.70199  eV     1   --> A              
     e( 32 - 32) =     35.51118  eV     1   --> A              
     e( 33 - 33) =     35.95774  eV     1   --> A              
     e( 34 - 34) =     36.26377  eV     1   --> A              
     e( 35 - 35) =     37.96091  eV     1   --> A              
     e( 36 - 36) =     38.32590  eV     1   --> A              
     e( 37 - 37) =     41.65404  eV     1   --> A              
     e( 38 - 38) =     42.83843  eV     1   --> A              
     e( 39 - 39) =     43.40718  eV     1   --> A              
     e( 40 - 40) =     43.84591  eV     1   --> A              

 **************************************************************************

 **************************************************************************

                    xk=(   0.53042,  -0.17693,   0.17675  )

     Band symmetry, C_1 (1)     point group:

     e(  1 -  1) =    -46.77917  eV     1   --> A              
     e(  2 -  2) =    -46.75940  eV     1   --> A              
     e(  3 -  3) =    -18.87193  eV     1   --> A              
     e(  4 -  4) =    -18.81548  eV     1   --> A              
     e(  5 -  5) =    -18.80432  eV     1   --> A              
     e(  6 -  6) =    -18.60918  eV     1   --> A              
     e(  7 -  7) =    -18.59980  eV     1   --> A              
     e(  8 -  8) =    -18.58264  eV     1   --> A              
     e(  9 -  9) =    -11.20375  eV     1   --> A              
     e( 10 - 10) =      2.07616  eV     1   --> A              
     e( 11 - 11) =      2.79571  eV     1   --> A              
     e( 12 - 12) =      3.05257  eV     1   --> A              
     e( 13 - 13) =      8.59633  eV     1   --> A              
     e( 14 - 14) =     11.33429  eV     1   --> A              
     e( 15 - 15) =     12.97235  eV     1   --> A              
     e( 16 - 16) =     14.46142  eV     1   --> A              
     e( 17 - 17) =     16.10182  eV     1   --> A              
     e( 18 - 18) =     19.24594  eV     1   --> A              
     e( 19 - 19) =     19.55241  eV     1   --> A              
     e( 20 - 20) =     21.65160  eV     1   --> A              
     e( 21 - 21) =     22.63579  eV     1   --> A              
     e( 22 - 22) =     24.12767  eV     1   --> A              
     e( 23 - 23) =     25.24102  eV     1   --> A              
     e( 24 - 24) =     25.92541  eV     1   --> A              
     e( 25 - 25) =     27.76493  eV     1   --> A              
     e( 26 - 26) =     28.50562  eV     1   --> A              
     e( 27 - 27) =     30.80165  eV     1   --> A              
     e( 28 - 28) =     31.30957  eV     1   --> A              
     e( 29 - 29) =     32.21453  eV     1   --> A              
     e( 30 - 30) =     33.64334  eV     1   --> A              
     e( 31 - 31) =     34.19564  eV     1   --> A              
     e( 32 - 32) =     34.67717  eV     1   --> A              
     e( 33 - 33) =     35.63960  eV     1   --> A              
     e( 34 - 34) =     37.44342  eV     1   --> A              
     e( 35 - 35) =     37.78430  eV     1   --> A              
     e( 36 - 36) =     38.42918  eV     1   --> A              
     e( 37 - 37) =     40.80165  eV     1   --> A              
     e( 38 - 38) =     42.73493  eV     1   --> A              
     e( 39 - 39) =     43.13042  eV     1   --> A              
     e( 40 - 40) =     43.81744  eV     1   --> A              

 **************************************************************************

 **************************************************************************

                    xk=(   0.58933,  -0.11802,   0.11781  )

     Band symmetry, C_1 (1)     point group:

     e(  1 -  1) =    -46.78129  eV     1   --> A              
     e(  2 -  2) =    -46.75705  eV     1   --> A              
     e(  3 -  3) =    -18.90827  eV     1   --> A              
     e(  4 -  4) =    -18.83437  eV     1   --> A              
     e(  5 -  5) =    -18.82835  eV     1   --> A              
     e(  6 -  6) =    -18.58294  eV     1   --> A              
     e(  7 -  7) =    -18.57840  eV     1   --> A              
     e(  8 -  8) =    -18.55655  eV     1   --> A              
     e(  9 -  9) =    -11.18802  eV     1   --> A              
     e( 10 - 10) =      2.09827  eV     1   --> A              
     e( 11 - 11) =      2.79989  eV     1   --> A              
     e( 12 - 12) =      3.00302  eV     1   --> A              
     e( 13 - 13) =      8.28003  eV     1   --> A              
     e( 14 - 14) =     11.93258  eV     1   --> A              
     e( 15 - 15) =     12.95873  eV     1   --> A              
     e( 16 - 16) =     14.63374  eV     1   --> A              
     e( 17 - 17) =     15.34048  eV     1   --> A              
     e( 18 - 18) =     18.39836  eV     1   --> A              
     e( 19 - 19) =     20.00619  eV     1   --> A              
     e( 20 - 20) =     23.08710  eV     1   --> A              
     e( 21 - 21) =     23.37400  eV     1   --> A              
     e( 22 - 22) =     24.68480  eV     1   --> A              
     e( 23 - 23) =     25.33725  eV     1   --> A              
     e( 24 - 24) =     26.53359  eV     1   --> A              
     e( 25 - 25) =     26.77864  eV     1   --> A              
     e( 26 - 26) =     28.15566  eV     1   --> A              
     e( 27 - 27) =     29.21817  eV     1   --> A              
     e( 28 - 28) =     30.79542  eV     1   --> A              
     e( 29 - 29) =     32.41007  eV     1   --> A              
     e( 30 - 30) =     32.83063  eV     1   --> A              
     e( 31 - 31) =     33.75159  eV     1   --> A              
     e( 32 - 32) =     34.63326  eV     1   --> A              
     e( 33 - 33) =     35.92417  eV     1   --> A              
     e( 34 - 34) =     36.39629  eV     1   --> A              
     e( 35 - 35) =     39.52843  eV     1   --> A              
     e( 36 - 36) =     39.78999  eV     1   --> A              
     e( 37 - 37) =     40.19310  eV     1   --> A              
     e( 38 - 38) =     42.40285  eV     1   --> A              
     e( 39 - 39) =     43.26433  eV     1   --> A              
     e( 40 - 40) =     43.53995  eV     1   --> A              

 **************************************************************************

 **************************************************************************

                    xk=(   0.64832,  -0.05904,   0.05881  )

     Band symmetry, C_1 (1)     point group:

     e(  1 -  1) =    -46.78257  eV     1   --> A              
     e(  2 -  2) =    -46.75557  eV     1   --> A              
     e(  3 -  3) =    -18.93165  eV     1   --> A              
     e(  4 -  4) =    -18.84524  eV     1   --> A              
     e(  5 -  5) =    -18.84368  eV     1   --> A              
     e(  6 -  6) =    -18.56607  eV     1   --> A              
     e(  7 -  7) =    -18.56519  eV     1   --> A              
     e(  8 -  8) =    -18.54050  eV     1   --> A              
     e(  9 -  9) =    -11.17625  eV     1   --> A              
     e( 10 - 10) =      2.03851  eV     1   --> A              
     e( 11 - 11) =      2.90325  eV     1   --> A              
     e( 12 - 12) =      2.96762  eV     1   --> A              
     e( 13 - 13) =      8.03980  eV     1   --> A              
     e( 14 - 14) =     12.15396  eV     1   --> A              
     e( 15 - 15) =     13.37250  eV     1   --> A              
     e( 16 - 16) =     14.74351  eV     1   --> A              
     e( 17 - 17) =     14.88060  eV     1   --> A              
     e( 18 - 18) =     17.38133  eV     1   --> A              
     e( 19 - 19) =     20.88793  eV     1   --> A              
     e( 20 - 20) =     23.38992  eV     1   --> A              
     e( 21 - 21) =     24.91890  eV     1   --> A              
     e( 22 - 22) =     25.22356  eV     1   --> A              
     e( 23 - 23) =     25.27799  eV     1   --> A              
     e( 24 - 24) =     26.22891  eV     1   --> A              
     e( 25 - 25) =     26.85193  eV     1   --> A              
     e( 26 - 26) =     27.64483  eV     1   --> A              
     e( 27 - 27) =     27.71695  eV     1   --> A              
     e( 28 - 28) =     31.21920  eV     1   --> A              
     e( 29 - 29) =     31.91874  eV     1   --> A              
     e( 30 - 30) =     32.24177  eV     1   --> A              
     e( 31 - 31) =     32.76484  eV     1   --> A              
     e( 32 - 32) =     34.88752  eV     1   --> A              
     e( 33 - 33) =     35.41529  eV     1   --> A              
     e( 34 - 34) =     36.87241  eV     1   --> A              
     e( 35 - 35) =     39.30747  eV     1   --> A              
     e( 36 - 36) =     40.50335  eV     1   --> A              
     e( 37 - 37) =     41.42219  eV     1   --> A              
     e( 38 - 38) =     42.71114  eV     1   --> A              
     e( 39 - 39) =     43.29491  eV     1   --> A              
     e( 40 - 40) =     44.32278  eV     1   --> A              

 **************************************************************************

 **************************************************************************

                    xk=(   0.70723,  -0.00012,  -0.00012  )

     point group C_2h (2/m) 
     there are  4 classes
     the character table:

       E     C2    i     s_h  
A_g    1.00  1.00  1.00  1.00
B_g    1.00 -1.00  1.00 -1.00
A_u    1.00  1.00 -1.00 -1.00
B_u    1.00 -1.00 -1.00  1.00

     the symmetry operations in each class and the name of the first element:

     E        1
                                                                 
     C2       2
                                                                 
     i        3
                                                                 
     s_h      4
                                                                 

     Band symmetry, C_2h (2/m)  point group:

     e(  1 -  1) =    -46.78298  eV     1   --> B_u            
     e(  2 -  2) =    -46.75510  eV     1   --> A_g            
     e(  3 -  3) =    -18.93946  eV     1   --> A_g            
     e(  4 -  4) =    -18.84930  eV     1   --> B_u            
     e(  5 -  5) =    -18.84911  eV     1   --> A_u            
     e(  6 -  7) =    -18.56037  eV     2   --> A_g            
     e(  6 -  7) =    -18.56037  eV     2   --> B_g            
     e(  8 -  8) =    -18.53521  eV     1   --> B_u            
     e(  9 -  9) =    -11.17190  eV     1   --> A_g            
     e( 10 - 10) =      2.00694  eV     1   --> B_u            
     e( 11 - 11) =      2.95470  eV     1   --> B_u            
     e( 12 - 12) =      2.95593  eV     1   --> A_u            
     e( 13 - 13) =      7.94969  eV     1   --> A_g            
     e( 14 - 14) =     12.18982  eV     1   --> B_u            
     e( 15 - 15) =     13.61856  eV     1   --> A_g            
     e( 16 - 16) =     14.77976  eV     1   --> B_u            
     e( 17 - 17) =     14.78448  eV     1   --> A_u            
     e( 18 - 18) =     16.91032  eV     1   --> A_g            
     e( 19 - 19) =     21.39024  eV     1   --> A_u            
     e( 20 - 20) =     23.39315  eV     1   --> B_g            
     e( 21 - 21) =     25.10211  eV     1   --> A_g            
     e( 22 - 22) =     25.10480  eV     1   --> B_g            
     e( 23 - 23) =     26.37246  eV     1   --> B_u            
     e( 24 - 24) =     26.37540  eV     1   --> A_u            
     e( 25 - 25) =     26.85891  eV     1   --> A_g            
     e( 26 - 26) =     26.86334  eV     1   --> B_g            
     e( 27 - 27) =     27.13938  eV     1   --> A_g            
     e( 28 - 28) =     31.54583  eV     1   --> B_u            
     e( 29 - 29) =     31.59522  eV     1   --> B_u            
     e( 30 - 30) =     31.60552  eV     1   --> A_u            
     e( 31 - 31) =     33.19033  eV     1   --> B_u            
     e( 32 - 32) =     33.87099  eV     1   --> A_g            
     e( 33 - 33) =     35.88067  eV     1   --> B_u            
     e( 34 - 34) =     37.24190  eV     1   --> B_u            
     e( 35 - 35) =     38.78367  eV     1   --> A_g            
     e( 36 - 36) =     40.66847  eV     1   --> A_g            
     e( 37 - 37) =     41.99734  eV     1   --> B_g            
     e( 38 - 38) =     42.98290  eV     1   --> A_g            
     e( 39 - 39) =     43.69972  eV     1   --> B_u            
     e( 40 - 40) =     45.27230  eV     1   -->   ?

 **************************************************************************

     BANDS        :     10.42s CPU     28.04s WALL


   This run was terminated on:   0:30: 7   2Nov2024            

=------------------------------------------------------------------------------=
   JOB DONE.
=------------------------------------------------------------------------------=
