
     Program PWSCF v.6.6 starts on  2Nov2024 at  0:23:55 

     This program is part of the open-source Quantum ESPRESSO suite
     for quantum simulation of materials; please cite
         "P. Giannozzi et al., J. Phys.:Condens. Matter 21 395502 (2009);
         "P. Giannozzi et al., J. Phys.:Condens. Matter 29 465901 (2017);
          URL http://www.quantum-espresso.org", 
     in publications or presentations arising from this work. More details at
     http://www.quantum-espresso.org/quote

     Parallel version (MPI & OpenMP), running on       3 processor cores
     Number of MPI processes:                 3
     Threads/MPI process:                     1

     MPI processes distributed on     1 nodes
     R & G space division:  proc/nbgrp/npool/nimage =       3
     Fft bands division:     nmany     =       1
     Waiting for input...
     Reading input from standard input
Warning: card  &IONS ignored
Warning: card     ION_DYNAMICS = 'BFGS' ignored
Warning: card  / ignored
Warning: card  &CELL ignored
Warning: card     CELL_FACTOR = 6 ignored
Warning: card  / ignored
Warning: card  &CELL ignored
Warning: card     CELL_FACTOR = 6 ignored
Warning: card  / ignored

     Current dimensions of program PWSCF are:
     Max number of different atomic species (ntypx) = 10
     Max number of k-points (npk) =  40000
     Max angular momentum in pseudopotentials (lmaxx) =  3

     Atomic positions and unit cell read from directory:
     ./out/1.save/
     Atomic positions from file used, from input discarded

     file Na.pbe-spn-kjpaw_psl.1.0.0.UPF: wavefunction(s)  2P renormalized
     file O.pbe-n-kjpaw_psl.1.0.0.UPF: wavefunction(s)  2S 2P renormalized

     Subspace diagonalization in iterative solution of the eigenvalue problem:
     a serial algorithm will be used

     Message from routine setup:
     using ibrav=0 with symmetry is DISCOURAGED, use correct ibrav instead

     Parallelization info
     --------------------
     sticks:   dense  smooth     PW     G-vecs:    dense   smooth      PW
     Min         408     334     98                 9329     6941    1071
     Max         409     335     99                 9330     6944    1072
     Sum        1225    1003    295                27989    20827    3215



     bravais-lattice index     =            0
     lattice parameter (alat)  =       7.4054  a.u.
     unit-cell volume          =     287.0166 (a.u.)^3
     number of atoms/cell      =            3
     number of atomic types    =            2
     number of electrons       =        24.00
     number of Kohn-Sham states=           40
     kinetic-energy cutoff     =      66.0000  Ry
     charge density cutoff     =     323.0000  Ry
     Exchange-correlation= SLA PW PBX PBC
                           (   1   4   3   4   0   0   0)

     celldm(1)=   7.405419  celldm(2)=   0.000000  celldm(3)=   0.000000
     celldm(4)=   0.000000  celldm(5)=   0.000000  celldm(6)=   0.000000

     crystal axes: (cart. coord. in units of alat)
               a(1) = (   0.707107   0.707107   0.000246 )  
               a(2) = (   0.000246   0.707107   0.707107 )  
               a(3) = (   0.707107   0.000246   0.707107 )  

     reciprocal axes: (cart. coord. in units 2 pi/alat)
               b(1) = (  0.707230  0.707230 -0.707476 )  
               b(2) = ( -0.707476  0.707230  0.707230 )  
               b(3) = (  0.707230 -0.707476  0.707230 )  


     PseudoPot. # 1 for Na read from file:
     /home/haojia/qe_pseudo/Na.pbe-spn-kjpaw_psl.1.0.0.UPF
     MD5 check sum: 05b4deb74e3932c23ab016979dc8b5d4
     Pseudo is Projector augmented-wave + core cor, Zval =  9.0
     Generated using "atomic" code by A. Dal Corso v.6.3
     Shape of augmentation charge: PSQ
     Using radial grid of 1121 points,  4 beta functions with: 
                l(1) =   0
                l(2) =   0
                l(3) =   1
                l(4) =   1
     Q(r) pseudized with 0 coefficients 


     PseudoPot. # 2 for O  read from file:
     /home/haojia/qe_pseudo/O.pbe-n-kjpaw_psl.1.0.0.UPF
     MD5 check sum: e99d9cef9b487d1ca56f5b95ecd0fd7a
     Pseudo is Projector augmented-wave + core cor, Zval =  6.0
     Generated using "atomic" code by A. Dal Corso v.6.3
     Shape of augmentation charge: PSQ
     Using radial grid of 1095 points,  4 beta functions with: 
                l(1) =   0
                l(2) =   0
                l(3) =   1
                l(4) =   1
     Q(r) pseudized with 0 coefficients 


     atomic species   valence    mass     pseudopotential
        Na             9.00    22.99000     Na( 1.00)
        O              6.00    15.99900     O ( 1.00)

     12 Sym. Ops., with inversion, found



   Cartesian axes

     site n.     atom                  positions (alat units)
         1           Na  tau(   1) = (   0.3535955   0.3535955   0.3535955  )
         2           O   tau(   2) = (   0.0000000   0.0000000   0.0000000  )
         3           Na  tau(   3) = (  -0.3535955  -0.3535955  -0.3535955  )

     number of k points=    43  Gaussian smearing, width (Ry)=  0.0200
                       cart. coord. in units 2pi/alat
        k(    1) = (   0.0000000   0.0000000   0.0000000), wk =   0.0465116
        k(    2) = (   0.0442019   0.0442019  -0.0442173), wk =   0.0465116
        k(    3) = (   0.0884037   0.0884037  -0.0884345), wk =   0.0465116
        k(    4) = (   0.1326056   0.1326056  -0.1326518), wk =   0.0465116
        k(    5) = (   0.1768075   0.1768075  -0.1768690), wk =   0.0465116
        k(    6) = (   0.2210093   0.2210093  -0.2210863), wk =   0.0465116
        k(    7) = (   0.2652112   0.2652112  -0.2653035), wk =   0.0465116
        k(    8) = (   0.3094131   0.3094131  -0.3095208), wk =   0.0465116
        k(    9) = (   0.3536150   0.3536150  -0.3537380), wk =   0.0465116
        k(   10) = (   0.2651805   0.4420187  -0.2653343), wk =   0.0465116
        k(   11) = (   0.1767459   0.5304224  -0.1769306), wk =   0.0465116
        k(   12) = (   0.0883114   0.6188262  -0.0885268), wk =   0.0465116
        k(   13) = (  -0.0001231   0.7072299  -0.0001231), wk =   0.0465116
        k(   14) = (   0.0882807   0.6187954   0.0882807), wk =   0.0465116
        k(   15) = (   0.1766844   0.5303609   0.1766844), wk =   0.0465116
        k(   16) = (   0.2650881   0.4419264   0.2650881), wk =   0.0465116
        k(   17) = (   0.3534919   0.3534919   0.3534919), wk =   0.0465116
        k(   18) = (   0.3240107   0.3240107   0.3240107), wk =   0.0465116
        k(   19) = (   0.2946001   0.2946001   0.2946001), wk =   0.0465116
        k(   20) = (   0.2651189   0.2651189   0.2651189), wk =   0.0465116
        k(   21) = (   0.2356377   0.2356377   0.2356377), wk =   0.0465116
        k(   22) = (   0.2062272   0.2062272   0.2062272), wk =   0.0465116
        k(   23) = (   0.1767459   0.1767459   0.1767459), wk =   0.0465116
        k(   24) = (   0.1472647   0.1472647   0.1472647), wk =   0.0465116
        k(   25) = (   0.1178542   0.1178542   0.1178542), wk =   0.0465116
        k(   26) = (   0.0883730   0.0883730   0.0883730), wk =   0.0465116
        k(   27) = (   0.0588917   0.0588917   0.0588917), wk =   0.0465116
        k(   28) = (   0.0294812   0.0294812   0.0294812), wk =   0.0465116
        k(   29) = (   0.0000000   0.0000000   0.0000000), wk =   0.0465116
        k(   30) = (   0.0442019  -0.0442173   0.0442019), wk =   0.0465116
        k(   31) = (   0.0884037  -0.0884345   0.0884037), wk =   0.0465116
        k(   32) = (   0.1326056  -0.1326518   0.1326056), wk =   0.0465116
        k(   33) = (   0.1768075  -0.1768690   0.1768075), wk =   0.0465116
        k(   34) = (   0.2210093  -0.2210863   0.2210093), wk =   0.0465116
        k(   35) = (   0.2652112  -0.2653035   0.2652112), wk =   0.0465116
        k(   36) = (   0.3094131  -0.3095208   0.3094131), wk =   0.0465116
        k(   37) = (   0.3536150  -0.3537380   0.3536150), wk =   0.0465116
        k(   38) = (   0.4125272  -0.2948258   0.2946822), wk =   0.0465116
        k(   39) = (   0.4715102  -0.2358428   0.2356787), wk =   0.0465116
        k(   40) = (   0.5304224  -0.1769306   0.1767459), wk =   0.0465116
        k(   41) = (   0.5893347  -0.1180183   0.1178132), wk =   0.0465116
        k(   42) = (   0.6483177  -0.0590353   0.0588097), wk =   0.0465116
        k(   43) = (   0.7072299  -0.0001231  -0.0001231), wk =   0.0465116

     Dense  grid:    27989 G-vectors     FFT dimensions: (  45,  45,  45)

     Smooth grid:    20827 G-vectors     FFT dimensions: (  40,  40,  40)

     Estimated max dynamical RAM per process >      11.66 MB

     Estimated total dynamical RAM >      34.97 MB

     Check: negative core charge=   -0.000003

     The potential is recalculated from file :
     ./out/1.save/charge-density

     Starting wfcs are   14 randomized atomic wfcs +   26 random wfcs
     Checking if some PAW data can be deallocated... 

     Band Structure Calculation
     Davidson diagonalization with overlap

     ethr =  4.17E-09,  avg # of iterations = 38.7

     total cpu time spent up to now is       52.1 secs

     End of band structure calculation

          k = 0.0000 0.0000 0.0000 (  2637 PWs)   bands (ev):

   -46.8128 -46.7286 -18.7974 -18.7971 -18.7971 -18.5910 -18.5910 -18.5909
   -11.4506   3.1937   3.1948   3.1948   5.1779  16.1640  16.1745  16.1745
    17.1450  17.1511  17.1511  17.4454  17.4454  21.5618  25.3074  25.9022
    25.9114  25.9114  33.9672  33.9672  33.9712  36.3154  36.3154  37.7595
    37.7595  37.7782  40.9005  43.9733  43.9733  45.1251  45.1484  45.1484

          k = 0.0442 0.0442-0.0442 (  2655 PWs)   bands (ev):

   -46.8120 -46.7293 -18.7963 -18.7956 -18.7954 -18.5958 -18.5935 -18.5935
   -11.4422   3.0784   3.1924   3.1934   5.3453  15.7470  16.0679  16.0762
    16.8013  16.8056  17.3061  17.9943  17.9966  21.8592  25.4716  25.7908
    25.9668  25.9746  33.4148  33.4198  33.9776  35.7210  35.7290  37.8184
    39.0506  39.0668  40.9840  43.7099  43.7113  44.8119  45.0610  45.0813

          k = 0.0884 0.0884-0.0884 (  2636 PWs)   bands (ev):

   -46.8095 -46.7316 -18.7934 -18.7903 -18.7901 -18.6074 -18.5999 -18.5999
   -11.4183   2.8166   3.1885   3.1894   5.7592  14.9040  15.6912  15.6970
    16.7550  16.7615  17.4668  18.7276  18.7309  22.6196  25.4710  25.9563
    26.1689  26.1761  32.0035  32.0152  33.9801  35.5441  35.5595  37.9889
    41.0379  41.0549  41.2132  42.8576  42.8621  44.0094  44.9150  44.9351

          k = 0.1326 0.1326-0.1327 (  2629 PWs)   bands (ev):

   -46.8054 -46.7353 -18.7889 -18.7817 -18.7815 -18.6260 -18.6103 -18.6103
   -11.3828   2.5255   3.1825   3.1833   6.2968  13.9485  15.2260  15.2310
    16.9585  16.9658  17.5626  19.4678  19.4722  23.5051  25.1388  26.5339
    26.5397  26.7210  30.3970  30.4101  33.9027  35.7161  35.7335  38.2726
    41.3815  41.3874  41.4886  42.8513  42.8693  43.0358  44.5677  44.5837

          k = 0.1768 0.1768-0.1769 (  2611 PWs)   bands (ev):

   -46.7999 -46.7402 -18.7831 -18.7695 -18.7693 -18.6485 -18.6241 -18.6241
   -11.3412   2.2628   3.1754   3.1762   6.8941  12.9827  14.8108  14.8156
    17.2722  17.2799  17.6669  20.1642  20.1700  23.7022  25.5167  27.0887
    27.0927  27.7395  28.8658  28.8791  33.6578  36.0533  36.0715  38.6688
    39.5169  39.5231  41.1598  42.4804  43.1603  43.1740  43.5234  43.5386

          k = 0.2210 0.2210-0.2211 (  2593 PWs)   bands (ev):

   -46.7933 -46.7464 -18.7761 -18.7549 -18.7547 -18.6722 -18.6403 -18.6403
   -11.2999   2.0511   3.1684   3.1692   7.5231  12.0509  14.4774  14.4822
    17.6352  17.6430  17.8235  20.7815  20.7890  23.1871  26.6060  27.3650
    27.3761  27.9951  27.9991  28.9872  33.1860  36.5059  36.5244  37.5473
    37.5530  39.1755  39.6599  41.9704  41.9883  42.7562  43.4048  43.4235

          k = 0.2652 0.2652-0.2653 (  2593 PWs)   bands (ev):

   -46.7858 -46.7535 -18.7678 -18.7380 -18.7379 -18.6944 -18.6590 -18.6589
   -11.2653   1.8987   3.1624   3.1630   8.1739  11.1739  14.2354  14.2404
    17.9861  17.9938  18.0287  21.3022  21.3112  22.5933  26.2568  26.2694
    27.7930  28.9582  28.9584  30.4334  32.4975  35.6201  35.6245  37.0634
    37.0824  37.8035  39.7871  40.8947  40.9130  43.0831  43.2357  43.2543

          k = 0.3094 0.3094-0.3095 (  2590 PWs)   bands (ev):

   -46.7778 -46.7613 -18.7589 -18.7194 -18.7193 -18.7123 -18.6789 -18.6788
   -11.2422   1.8073   3.1583   3.1589   8.8453  10.3624  14.0893  14.0943
    18.2240  18.2480  18.2556  21.6980  21.7083  22.1343  25.4184  25.4308
    28.8958  30.1413  30.1442  31.5870  32.1270  33.8873  33.8899  35.9090
    37.6407  37.6600  39.9989  40.0172  40.4781  42.5427  43.1157  43.1347

          k = 0.3536 0.3536-0.3537 (  2608 PWs)   bands (ev):

   -46.7696 -46.7695 -18.7545 -18.7206 -18.7021 -18.7019 -18.6969 -18.6969
   -11.2342   1.7771   3.1567   3.1573   9.4150   9.7443  14.0402  14.0452
    18.3089  18.3460  18.3535  21.8626  21.8735  21.9573  25.0928  25.1050
    29.5163  30.9732  30.9788  31.1075  32.8717  32.8719  33.3820  34.4978
    37.9759  37.9954  39.5581  39.5762  40.9799  41.9265  43.0733  43.0923

          k = 0.2652 0.4420-0.2653 (  2592 PWs)   bands (ev):

   -46.7748 -46.7641 -18.8047 -18.7712 -18.7554 -18.6613 -18.6449 -18.6376
   -11.2254   1.8792   3.0199   3.1256   9.0656  10.3286  13.5640  14.1744
    17.4907  18.5543  19.3262  21.2258  22.0752  22.8446  25.1308  25.2247
    29.1133  29.5196  30.9756  31.9846  32.7947  33.2786  34.5003  35.2912
    35.5092  37.0205  38.1357  38.6664  42.1339  42.6553  43.4633  43.7773

          k = 0.1767 0.5304-0.1769 (  2596 PWs)   bands (ev):

   -46.7792 -46.7594 -18.8719 -18.8155 -18.8043 -18.6092 -18.5998 -18.5826
   -11.2038   2.0762   2.7957   3.0526   8.5963  11.3343  12.9724  14.4614
    16.1018  19.2459  19.5524  21.6516  22.6358  24.1277  25.2410  25.9254
    27.7649  28.5056  30.8017  31.3096  32.2145  33.6433  34.1956  34.6772
    35.6396  37.4434  37.7843  38.4292  40.8016  42.7349  43.1304  43.8174

          k = 0.0883 0.6188-0.0885 (  2591 PWs)   bands (ev):

   -46.7820 -46.7562 -18.9217 -18.8408 -18.8373 -18.5731 -18.5707 -18.5472
   -11.1814   2.0703   2.8500   2.9828   8.1453  12.0857  13.1386  14.6975
    15.0632  17.8542  20.4490  23.2754  24.2468  24.8934  25.3499  26.4072
    26.7356  27.9664  28.3551  30.9553  32.3087  32.5668  32.9717  35.0008
    35.6354  36.4607  39.7655  40.1196  40.7017  42.5134  43.1490  43.8599

          k =-0.0001 0.7072-0.0001 (  2586 PWs)   bands (ev):

   -46.7830 -46.7551 -18.9395 -18.8493 -18.8491 -18.5604 -18.5603 -18.5352
   -11.1719   2.0069   2.9547   2.9559   7.9497  12.1898  13.6186  14.7798
    14.7845  16.9103  21.3902  23.3932  25.1021  25.1048  26.3725  26.3754
    26.8589  26.8633  27.1394  31.5458  31.5952  31.6055  33.1903  33.8710
    35.8807  37.2419  38.7837  40.6685  41.9973  42.9829  43.6997  45.2723

          k = 0.0883 0.6188 0.0883 (  2591 PWs)   bands (ev):

   -46.7820 -46.7562 -18.9217 -18.8410 -18.8371 -18.5731 -18.5708 -18.5472
   -11.1814   2.0702   2.8489   2.9840   8.1452  12.0859  13.1373  14.7025
    15.0609  17.8528  20.4508  23.2745  24.2491  24.8909  25.3545  26.4051
    26.7274  27.9626  28.3613  30.9467  32.3194  32.5592  32.9760  34.9975
    35.6399  36.4606  39.7683  40.1124  40.6911  42.5101  43.1554  43.8773

          k = 0.1767 0.5304 0.1767 (  2596 PWs)   bands (ev):

   -46.7792 -46.7594 -18.8719 -18.8156 -18.8042 -18.6091 -18.5998 -18.5826
   -11.2039   2.0756   2.7954   3.0536   8.5959  11.3336  12.9728  14.4670
    16.1004  19.2488  19.5493  21.6539  22.6354  24.1238  25.2447  25.9201
    27.7605  28.4972  30.7965  31.3157  32.2051  33.6360  34.2062  34.6759
    35.6401  37.4454  37.7709  38.4311  40.8129  42.7207  43.1524  43.8352

          k = 0.2651 0.4419 0.2651 (  2592 PWs)   bands (ev):

   -46.7748 -46.7641 -18.8048 -18.7712 -18.7552 -18.6613 -18.6449 -18.6376
   -11.2256   1.8782   3.0203   3.1266   9.0646  10.3274  13.5665  14.1805
    17.4899  18.5578  19.3269  21.2215  22.0746  22.8377  25.1354  25.2221
    29.1046  29.5118  30.9703  31.9822  32.7846  33.2706  34.4921  35.2955
    35.4891  37.0297  38.1531  38.6799  42.1416  42.6770  43.4712  43.7950

          k = 0.3535 0.3535 0.3535 (  2608 PWs)   bands (ev):

   -46.7695 -46.7695 -18.7546 -18.7207 -18.7020 -18.7020 -18.6968 -18.6968
   -11.2344   1.7760   3.1578   3.1578   9.4134   9.7435  14.0478  14.0478
    18.3091  18.3516  18.3516  21.8646  21.8646  21.9492  25.1006  25.1006
    29.5067  30.9657  30.9657  31.1129  32.8635  32.8635  33.3708  34.4747
    37.9989  37.9989  39.5788  39.5788  40.9935  41.9391  43.0985  43.0985

          k = 0.3240 0.3240 0.3240 (  2584 PWs)   bands (ev):

   -46.7750 -46.7640 -18.7564 -18.7165 -18.7127 -18.7127 -18.6854 -18.6854
   -11.2380   1.7894   3.1586   3.1586   9.0693  10.1095  14.0698  14.0698
    18.2697  18.3074  18.3074  21.7886  21.7886  22.0301  25.2491  25.2491
    29.1934  30.5192  30.5192  31.3772  32.6139  33.3920  33.3920  35.2898
    37.8306  37.8306  39.7941  39.7941  40.7188  42.2648  43.1177  43.1177

          k = 0.2946 0.2946 0.2946 (  2584 PWs)   bands (ev):

   -46.7805 -46.7586 -18.7618 -18.7254 -18.7254 -18.7071 -18.6721 -18.6721
   -11.2486   1.8299   3.1605   3.1605   8.6189  10.6226  14.1348  14.1348
    18.1658  18.1817  18.1817  21.5876  21.5876  22.2547  25.6578  25.6578
    28.5436  29.7335  29.7335  31.4316  32.0016  34.4220  34.4220  36.5108
    37.4763  37.4763  40.2579  40.2890  40.2890  42.8779  43.1729  43.1729

          k = 0.2651 0.2651 0.2651 (  2593 PWs)   bands (ev):

   -46.7858 -46.7535 -18.7679 -18.7379 -18.7379 -18.6944 -18.6589 -18.6589
   -11.2655   1.8977   3.1634   3.1634   8.1731  11.1715  14.2428  14.2428
    17.9919  17.9919  18.0281  21.3056  21.3056  22.5856  26.2610  26.2610
    27.7882  28.9538  28.9538  30.4218  32.4984  35.6088  35.6088  37.0870
    37.0870  37.7830  39.8018  40.9141  40.9141  43.0887  43.2605  43.2605

          k = 0.2356 0.2356 0.2356 (  2593 PWs)   bands (ev):

   -46.7909 -46.7487 -18.7736 -18.7493 -18.7493 -18.6798 -18.6463 -18.6463
   -11.2876   1.9926   3.1673   3.1673   7.7367  11.7495  14.3936  14.3936
    17.7627  17.7627  17.8871  20.9697  20.9697  22.9772  26.9938  26.9938
    26.9974  28.2659  28.2659  29.4391  32.9784  36.6797  36.6797  36.9089
    36.9089  39.0400  39.3830  41.6157  41.6157  42.8784  43.3710  43.3710

          k = 0.2062 0.2062 0.2062 (  2593 PWs)   bands (ev):

   -46.7956 -46.7442 -18.7787 -18.7598 -18.7598 -18.6640 -18.6346 -18.6346
   -11.3134   2.1143   3.1718   3.1718   7.3106  12.3520  14.5855  14.5855
    17.5185  17.5185  17.7633  20.5895  20.5895  23.3762  26.2139  27.5021
    27.5021  28.0104  28.0104  28.5402  33.3704  36.3686  36.3686  38.1887
    38.1887  39.0103  40.2076  42.3741  42.3741  42.6352  43.4825  43.4825

          k = 0.1767 0.1767 0.1767 (  2611 PWs)   bands (ev):

   -46.7999 -46.7402 -18.7833 -18.7693 -18.7693 -18.6484 -18.6241 -18.6241
   -11.3413   2.2620   3.1764   3.1764   6.8936  12.9784  14.8176  14.8176
    17.2785  17.2785  17.6650  20.1672  20.1672  23.6946  25.5123  27.0901
    27.0901  27.7335  28.8668  28.8668  33.6590  36.0772  36.0772  38.6845
    39.5038  39.5038  41.1473  42.4749  43.1741  43.1741  43.5431  43.5431

          k = 0.1473 0.1473 0.1473 (  2623 PWs)   bands (ev):

   -46.8037 -46.7368 -18.7873 -18.7778 -18.7778 -18.6331 -18.6145 -18.6145
   -11.3694   2.4325   3.1812   3.1812   6.4904  13.6202  15.0865  15.0865
    17.0604  17.0604  17.5907  19.7092  19.7092  23.6930  25.1304  26.7003
    26.7003  27.0288  29.8718  29.8718  33.8456  35.8371  35.8371  38.4080
    40.7760  40.7760  41.5174  42.7270  43.2305  43.2305  44.1091  44.1091

          k = 0.1179 0.1179 0.1179 (  2631 PWs)   bands (ev):

   -46.8069 -46.7339 -18.7907 -18.7847 -18.7847 -18.6192 -18.6064 -18.6064
   -11.3957   2.6202   3.1856   3.1856   6.1087  14.2650  15.3851  15.3851
    16.8811  16.8811  17.5299  19.2264  19.2264  23.2269  25.2166  26.3977
    26.3977  26.4343  30.9282  30.9282  33.9451  35.6595  35.6595  38.1819
    41.4057  41.9197  41.9197  42.3283  42.3283  43.3473  44.9048  44.9048

          k = 0.0884 0.0884 0.0884 (  2640 PWs)   bands (ev):

   -46.8095 -46.7316 -18.7937 -18.7902 -18.7902 -18.6073 -18.5999 -18.5999
   -11.4184   2.8157   3.1895   3.1895   5.7589  14.8969  15.6981  15.6981
    16.7609  16.7609  17.4625  18.7297  18.7297  22.6167  25.4635  25.9545
    26.1755  26.1755  31.9998  31.9998  33.9829  35.5657  35.5657  38.0053
    41.0352  41.0352  41.2127  42.8515  42.8515  43.9934  44.9322  44.9322

          k = 0.0589 0.0589 0.0589 (  2652 PWs)   bands (ev):

   -46.8113 -46.7299 -18.7961 -18.7940 -18.7940 -18.5987 -18.5952 -18.5952
   -11.4358   2.9996   3.1924   3.1924   5.4628  15.4817  15.9782  15.9782
    16.7466  16.7466  17.3650  18.2355  18.2355  22.0720  25.5934  25.6993
    26.0254  26.0254  32.9975  32.9975  33.9853  35.6157  35.6157  37.8790
    39.6905  39.6905  41.0463  43.4944  43.4944  44.5629  45.0338  45.0338

          k = 0.0295 0.0295 0.0295 (  2649 PWs)   bands (ev):

   -46.8125 -46.7289 -18.7970 -18.7963 -18.7963 -18.5933 -18.5921 -18.5921
   -11.4468   3.1394   3.1942   3.1942   5.2550  15.9547  16.1369  16.1369
    16.9150  16.9150  17.2311  17.7670  17.7670  21.6969  25.3808  25.8474
    25.9393  25.9393  33.7204  33.7204  33.9761  35.9333  35.9333  37.8034
    38.4555  38.4555  40.9381  43.8571  43.8571  44.9716  45.1174  45.1174

          k = 0.0000 0.0000 0.0000 (  2637 PWs)   bands (ev):

   -46.8128 -46.7286 -18.7974 -18.7971 -18.7971 -18.5910 -18.5910 -18.5909
   -11.4506   3.1937   3.1948   3.1948   5.1779  16.1640  16.1745  16.1745
    17.1450  17.1511  17.1511  17.4454  17.4454  21.5618  25.3074  25.9022
    25.9114  25.9114  33.9672  33.9672  33.9712  36.3154  36.3154  37.7595
    37.7595  37.7782  40.9005  43.9733  43.9733  45.1251  45.1484  45.1484

          k = 0.0442-0.0442 0.0442 (  2655 PWs)   bands (ev):

   -46.8120 -46.7293 -18.7963 -18.7956 -18.7954 -18.5958 -18.5935 -18.5935
   -11.4422   3.0784   3.1924   3.1934   5.3453  15.7470  16.0679  16.0762
    16.8013  16.8056  17.3061  17.9943  17.9966  21.8592  25.4716  25.7908
    25.9668  25.9746  33.4148  33.4198  33.9776  35.7210  35.7290  37.8184
    39.0506  39.0668  40.9840  43.7099  43.7113  44.8119  45.0610  45.0813

          k = 0.0884-0.0884 0.0884 (  2636 PWs)   bands (ev):

   -46.8095 -46.7316 -18.7934 -18.7903 -18.7901 -18.6074 -18.5999 -18.5999
   -11.4183   2.8166   3.1885   3.1894   5.7592  14.9040  15.6912  15.6970
    16.7550  16.7615  17.4668  18.7276  18.7309  22.6196  25.4710  25.9563
    26.1689  26.1761  32.0035  32.0152  33.9801  35.5441  35.5595  37.9889
    41.0379  41.0549  41.2132  42.8576  42.8621  44.0094  44.9150  44.9351

          k = 0.1326-0.1327 0.1326 (  2629 PWs)   bands (ev):

   -46.8054 -46.7353 -18.7889 -18.7817 -18.7815 -18.6260 -18.6103 -18.6103
   -11.3828   2.5255   3.1825   3.1833   6.2968  13.9485  15.2260  15.2310
    16.9585  16.9658  17.5626  19.4678  19.4722  23.5051  25.1388  26.5339
    26.5397  26.7210  30.3970  30.4101  33.9027  35.7161  35.7335  38.2726
    41.3815  41.3874  41.4886  42.8513  42.8693  43.0358  44.5677  44.5837

          k = 0.1768-0.1769 0.1768 (  2611 PWs)   bands (ev):

   -46.7999 -46.7402 -18.7831 -18.7695 -18.7693 -18.6485 -18.6241 -18.6241
   -11.3412   2.2628   3.1754   3.1762   6.8941  12.9827  14.8108  14.8156
    17.2722  17.2799  17.6669  20.1642  20.1700  23.7022  25.5167  27.0887
    27.0927  27.7395  28.8658  28.8791  33.6578  36.0533  36.0715  38.6688
    39.5169  39.5231  41.1598  42.4804  43.1603  43.1740  43.5234  43.5386

          k = 0.2210-0.2211 0.2210 (  2593 PWs)   bands (ev):

   -46.7933 -46.7464 -18.7761 -18.7549 -18.7547 -18.6722 -18.6403 -18.6403
   -11.2999   2.0511   3.1684   3.1692   7.5231  12.0509  14.4774  14.4822
    17.6352  17.6430  17.8235  20.7815  20.7890  23.1871  26.6060  27.3650
    27.3761  27.9951  27.9991  28.9872  33.1860  36.5059  36.5244  37.5473
    37.5530  39.1755  39.6599  41.9704  41.9883  42.7562  43.4048  43.4235

          k = 0.2652-0.2653 0.2652 (  2593 PWs)   bands (ev):

   -46.7858 -46.7535 -18.7678 -18.7380 -18.7379 -18.6944 -18.6590 -18.6589
   -11.2653   1.8987   3.1624   3.1630   8.1739  11.1739  14.2354  14.2404
    17.9861  17.9938  18.0287  21.3022  21.3112  22.5933  26.2568  26.2694
    27.7930  28.9582  28.9584  30.4334  32.4975  35.6201  35.6245  37.0634
    37.0824  37.8035  39.7871  40.8947  40.9130  43.0831  43.2357  43.2543

          k = 0.3094-0.3095 0.3094 (  2590 PWs)   bands (ev):

   -46.7778 -46.7613 -18.7589 -18.7194 -18.7193 -18.7123 -18.6789 -18.6788
   -11.2422   1.8073   3.1583   3.1589   8.8453  10.3624  14.0893  14.0943
    18.2240  18.2480  18.2556  21.6980  21.7083  22.1343  25.4184  25.4308
    28.8958  30.1413  30.1442  31.5870  32.1270  33.8873  33.8899  35.9090
    37.6407  37.6600  39.9989  40.0172  40.4781  42.5427  43.1157  43.1347

          k = 0.3536-0.3537 0.3536 (  2608 PWs)   bands (ev):

   -46.7696 -46.7695 -18.7545 -18.7206 -18.7021 -18.7019 -18.6969 -18.6969
   -11.2342   1.7771   3.1567   3.1573   9.4150   9.7443  14.0402  14.0452
    18.3089  18.3460  18.3535  21.8626  21.8735  21.9573  25.0928  25.1050
    29.5163  30.9732  30.9788  31.1075  32.8717  32.8719  33.3820  34.4978
    37.9759  37.9954  39.5581  39.5762  40.9799  41.9265  43.0733  43.0923

          k = 0.4125-0.2948 0.2947 (  2592 PWs)   bands (ev):

   -46.7731 -46.7658 -18.7825 -18.7525 -18.7372 -18.6800 -18.6622 -18.6589
   -11.2302   1.8243   3.0921   3.1426   9.2085  10.0594  13.7974  14.1032
    17.9143  18.4376  18.7993  21.5763  21.9600  22.4050  25.1105  25.1416
    29.3033  30.1398  30.9928  31.5773  32.8154  33.2285  33.8593  35.0395
    36.3753  38.0191  38.0688  39.1427  42.2129  42.5655  43.0783  43.3724

          k = 0.4715-0.2358 0.2357 (  2594 PWs)   bands (ev):

   -46.7764 -46.7624 -18.8278 -18.7882 -18.7729 -18.6428 -18.6284 -18.6176
   -11.2191   1.9473   2.9356   3.1039   8.9159  10.6396  13.3265  14.2637
    17.0228  18.7250  19.9330  20.8166  22.2308  23.3129  25.1591  25.3819
    28.9052  28.9096  30.9368  32.1859  32.9829  33.5375  33.7020  35.5112
    35.9577  36.2638  37.9609  38.3259  41.6540  42.8384  43.4072  43.8459

          k = 0.5304-0.1769 0.1767 (  2596 PWs)   bands (ev):

   -46.7792 -46.7594 -18.8719 -18.8155 -18.8043 -18.6092 -18.5998 -18.5826
   -11.2038   2.0762   2.7957   3.0526   8.5963  11.3343  12.9724  14.4614
    16.1018  19.2459  19.5524  21.6516  22.6358  24.1277  25.2410  25.9254
    27.7649  28.5056  30.8017  31.3096  32.2145  33.6433  34.1956  34.6772
    35.6396  37.4434  37.7843  38.4292  40.8016  42.7349  43.1304  43.8174

          k = 0.5893-0.1180 0.1178 (  2595 PWs)   bands (ev):

   -46.7813 -46.7571 -18.9083 -18.8344 -18.8284 -18.5829 -18.5784 -18.5565
   -11.1880   2.0983   2.7999   3.0030   8.2800  11.9326  12.9587  14.6337
    15.3405  18.3984  20.0062  23.0871  23.3740  24.6848  25.3372  26.5336
    26.7786  28.1557  29.2182  30.7954  32.4101  32.8306  33.7516  34.6333
    35.9242  36.3963  39.5284  39.7900  40.1931  42.4028  43.2643  43.5399

          k = 0.6483-0.0590 0.0588 (  2586 PWs)   bands (ev):

   -46.7826 -46.7556 -18.9316 -18.8452 -18.8437 -18.5661 -18.5652 -18.5405
   -11.1763   2.0385   2.9033   2.9676   8.0398  12.1540  13.3725  14.7435
    14.8806  17.3813  20.8879  23.3899  24.9189  25.2236  25.2780  26.2289
    26.8519  27.6448  27.7170  31.2192  31.9187  32.2418  32.7648  34.8875
    35.4153  36.8724  39.3075  40.5034  41.4222  42.7111  43.2949  44.3228

          k = 0.7072-0.0001-0.0001 (  2586 PWs)   bands (ev):

   -46.7830 -46.7551 -18.9395 -18.8493 -18.8491 -18.5604 -18.5603 -18.5352
   -11.1719   2.0069   2.9547   2.9559   7.9497  12.1898  13.6186  14.7798
    14.7845  16.9103  21.3902  23.3932  25.1021  25.1048  26.3725  26.3754
    26.8589  26.8633  27.1394  31.5458  31.5952  31.6055  33.1903  33.8710
    35.8807  37.2419  38.7837  40.6685  41.9973  42.9829  43.6997  45.2723

     the Fermi energy is     4.2389 ev
     (compare with:     4.3053 eV, computed in scf)

     Writing output data file ./out/1.save/

     init_run     :      0.44s CPU      0.51s WALL (       1 calls)
     electrons    :     41.25s CPU     49.60s WALL (       1 calls)

     Called by init_run:
     wfcinit      :      0.00s CPU      0.00s WALL (       1 calls)
     potinit      :      0.07s CPU      0.13s WALL (       1 calls)
     hinit0       :      0.30s CPU      0.31s WALL (       1 calls)

     Called by electrons:
     c_bands      :     41.25s CPU     49.60s WALL (       1 calls)
     v_of_rho     :      0.03s CPU      0.03s WALL (       1 calls)
     newd         :      0.02s CPU      0.02s WALL (       1 calls)
     PAW_pot      :      0.03s CPU      0.04s WALL (       1 calls)

     Called by c_bands:
     init_us_2    :      0.01s CPU      0.01s WALL (      43 calls)
     cegterg      :     37.06s CPU     38.91s WALL (     103 calls)

     Called by *egterg:
     cdiaghg      :      3.93s CPU      3.97s WALL (    1707 calls)
     h_psi        :     30.76s CPU     32.65s WALL (    1810 calls)
     s_psi        :      0.20s CPU      0.21s WALL (    1810 calls)
     g_psi        :      0.16s CPU      0.16s WALL (    1664 calls)

     Called by h_psi:
     h_psi:calbec :      0.32s CPU      0.34s WALL (    1810 calls)
     vloc_psi     :     30.16s CPU     32.02s WALL (    1810 calls)
     add_vuspsi   :      0.21s CPU      0.22s WALL (    1810 calls)

     General routines
     calbec       :      0.31s CPU      0.33s WALL (    1810 calls)
     fft          :      0.02s CPU      0.02s WALL (      13 calls)
     ffts         :      0.00s CPU      0.00s WALL (       1 calls)
     fftw         :     28.72s CPU     30.49s WALL (   80558 calls)
     interpolate  :      0.00s CPU      0.00s WALL (       1 calls)
     davcio       :      0.02s CPU      0.03s WALL (      86 calls)

     Parallel routines
     fft_scatt_xy :      2.62s CPU      2.76s WALL (   80572 calls)
     fft_scatt_yz :      3.75s CPU      4.12s WALL (   80572 calls)

     PWSCF        :     43.71s CPU     56.04s WALL


   This run was terminated on:   0:24:51   2Nov2024            

=------------------------------------------------------------------------------=
   JOB DONE.
=------------------------------------------------------------------------------=
