
     Program PWSCF v.6.6 starts on 16Oct2024 at 13:46:31 

     This program is part of the open-source Quantum ESPRESSO suite
     for quantum simulation of materials; please cite
         "P. Giannozzi et al., J. Phys.:Condens. Matter 21 395502 (2009);
         "P. Giannozzi et al., J. Phys.:Condens. Matter 29 465901 (2017);
          URL http://www.quantum-espresso.org", 
     in publications or presentations arising from this work. More details at
     http://www.quantum-espresso.org/quote

     Parallel version (MPI & OpenMP), running on     144 processor cores
     Number of MPI processes:                24
     Threads/MPI process:                     6

     MPI processes distributed on     1 nodes
     R & G space division:  proc/nbgrp/npool/nimage =      24
     Fft bands division:     nmany     =       1
     Waiting for input...
     Reading input from standard input
Warning: card  &IONS ignored
Warning: card     ION_DYNAMICS = 'BFGS' ignored
Warning: card  / ignored
Warning: card  &CELL ignored
Warning: card     CELL_FACTOR = 6 ignored
Warning: card  / ignored

     Current dimensions of program PWSCF are:
     Max number of different atomic species (ntypx) = 10
     Max number of k-points (npk) =  40000
     Max angular momentum in pseudopotentials (lmaxx) =  3

     Atomic positions and unit cell read from directory:
     ./out/Na_expansion01.save/
     Atomic positions from file used, from input discarded

     file K.pbe-spn-rrkjus_psl.1.0.0.UPF: wavefunction(s)  3S renormalized

     Subspace diagonalization in iterative solution of the eigenvalue problem:
     one sub-group per band group will be used
     scalapack distributed-memory algorithm (size of sub-group:  4*  4 procs)

     Message from routine setup:
     using ibrav=0 with symmetry is DISCOURAGED, use correct ibrav instead

     Parallelization info
     --------------------
     sticks:   dense  smooth     PW     G-vecs:    dense   smooth      PW
     Min          68      68     18                 1820     1820     266
     Max          69      69     19                 1824     1824     269
     Sum        1639    1639    451                43715    43715    6423



     bravais-lattice index     =            0
     lattice parameter (alat)  =       8.6146  a.u.
     unit-cell volume          =     451.9974 (a.u.)^3
     number of atoms/cell      =            3
     number of atomic types    =            2
     number of electrons       =        24.00
     number of Kohn-Sham states=           40
     kinetic-energy cutoff     =      80.0000  Ry
     charge density cutoff     =     320.0000  Ry
     Exchange-correlation= PBE
                           (   1   4   3   4   0   0   0)

     celldm(1)=   8.614605  celldm(2)=   0.000000  celldm(3)=   0.000000
     celldm(4)=   0.000000  celldm(5)=   0.000000  celldm(6)=   0.000000

     crystal axes: (cart. coord. in units of alat)
               a(1) = (   0.707107   0.707107   0.000060 )  
               a(2) = (   0.000060   0.707107   0.707107 )  
               a(3) = (   0.707107   0.000060   0.707107 )  

     reciprocal axes: (cart. coord. in units 2 pi/alat)
               b(1) = (  0.707137  0.707137 -0.707197 )  
               b(2) = ( -0.707197  0.707137  0.707137 )  
               b(3) = (  0.707137 -0.707197  0.707137 )  


     PseudoPot. # 1 for K  read from file:
     /global/home/hpc4995/potential/K.pbe-spn-rrkjus_psl.1.0.0.UPF
     MD5 check sum: 897b700350bb708b0563e904352feb48
     Pseudo is Ultrasoft + core correction, Zval =  9.0
     Generated using "atomic" code by A. Dal Corso v.6.2.2
     Using radial grid of 1165 points,  6 beta functions with: 
                l(1) =   0
                l(2) =   0
                l(3) =   1
                l(4) =   1
                l(5) =   2
                l(6) =   2
     Q(r) pseudized with 0 coefficients 


     PseudoPot. # 2 for O  read from file:
     /global/home/hpc4995/potential/O.pbe-n-rrkjus_psl.0.1.UPF
     MD5 check sum: 73b3d1dec572cf22214b1d95c6304b69
     Pseudo is Ultrasoft + core correction, Zval =  6.0
     Generated using "atomic" code by A. Dal Corso v.6.3MaX
     Using radial grid of 1095 points,  4 beta functions with: 
                l(1) =   0
                l(2) =   0
                l(3) =   1
                l(4) =   1
     Q(r) pseudized with 0 coefficients 


     atomic species   valence    mass     pseudopotential
        K              9.00    39.09830     K ( 1.00)
        O              6.00    15.99900     O ( 1.00)

     12 Sym. Ops., with inversion, found



   Cartesian axes

     site n.     atom                  positions (alat units)
         1           K   tau(   1) = (   0.3471758   0.3471758   0.3471758  )
         2           O   tau(   2) = (   0.0000000  -0.0000000   0.0000000  )
         3           K   tau(   3) = (  -0.3471758  -0.3471758  -0.3471758  )

     number of k points=    43  Gaussian smearing, width (Ry)=  0.0200
                       cart. coord. in units 2pi/alat
        k(    1) = (   0.0000000   0.0000000   0.0000000), wk =   0.0465116
        k(    2) = (   0.0441960   0.0441960  -0.0441998), wk =   0.0465116
        k(    3) = (   0.0883921   0.0883921  -0.0883996), wk =   0.0465116
        k(    4) = (   0.1325881   0.1325881  -0.1325994), wk =   0.0465116
        k(    5) = (   0.1767842   0.1767842  -0.1767992), wk =   0.0465116
        k(    6) = (   0.2209802   0.2209802  -0.2209990), wk =   0.0465116
        k(    7) = (   0.2651763   0.2651763  -0.2651988), wk =   0.0465116
        k(    8) = (   0.3093723   0.3093723  -0.3093986), wk =   0.0465116
        k(    9) = (   0.3535684   0.3535684  -0.3535984), wk =   0.0465116
        k(   10) = (   0.2651688   0.4419605  -0.2652063), wk =   0.0465116
        k(   11) = (   0.1767692   0.5303526  -0.1768142), wk =   0.0465116
        k(   12) = (   0.0883696   0.6187447  -0.0884221), wk =   0.0465116
        k(   13) = (  -0.0000300   0.7071368  -0.0000300), wk =   0.0465116
        k(   14) = (   0.0883621   0.6187372   0.0883621), wk =   0.0465116
        k(   15) = (   0.1767542   0.5303376   0.1767542), wk =   0.0465116
        k(   16) = (   0.2651463   0.4419380   0.2651463), wk =   0.0465116
        k(   17) = (   0.3535384   0.3535384   0.3535384), wk =   0.0465116
        k(   18) = (   0.3240533   0.3240533   0.3240533), wk =   0.0465116
        k(   19) = (   0.2946389   0.2946389   0.2946389), wk =   0.0465116
        k(   20) = (   0.2651538   0.2651538   0.2651538), wk =   0.0465116
        k(   21) = (   0.2356687   0.2356687   0.2356687), wk =   0.0465116
        k(   22) = (   0.2062543   0.2062543   0.2062543), wk =   0.0465116
        k(   23) = (   0.1767692   0.1767692   0.1767692), wk =   0.0465116
        k(   24) = (   0.1472841   0.1472841   0.1472841), wk =   0.0465116
        k(   25) = (   0.1178697   0.1178697   0.1178697), wk =   0.0465116
        k(   26) = (   0.0883846   0.0883846   0.0883846), wk =   0.0465116
        k(   27) = (   0.0588995   0.0588995   0.0588995), wk =   0.0465116
        k(   28) = (   0.0294851   0.0294851   0.0294851), wk =   0.0465116
        k(   29) = (   0.0000000   0.0000000   0.0000000), wk =   0.0465116
        k(   30) = (   0.0441960  -0.0441998   0.0441960), wk =   0.0465116
        k(   31) = (   0.0883921  -0.0883996   0.0883921), wk =   0.0465116
        k(   32) = (   0.1325881  -0.1325994   0.1325881), wk =   0.0465116
        k(   33) = (   0.1767842  -0.1767992   0.1767842), wk =   0.0465116
        k(   34) = (   0.2209802  -0.2209990   0.2209802), wk =   0.0465116
        k(   35) = (   0.2651763  -0.2651988   0.2651763), wk =   0.0465116
        k(   36) = (   0.3093723  -0.3093986   0.3093723), wk =   0.0465116
        k(   37) = (   0.3535684  -0.3535984   0.3535684), wk =   0.0465116
        k(   38) = (   0.4124729  -0.2946939   0.2946589), wk =   0.0465116
        k(   39) = (   0.4714481  -0.2357187   0.2356787), wk =   0.0465116
        k(   40) = (   0.5303526  -0.1768142   0.1767692), wk =   0.0465116
        k(   41) = (   0.5892571  -0.1179097   0.1178597), wk =   0.0465116
        k(   42) = (   0.6482323  -0.0589345   0.0588795), wk =   0.0465116
        k(   43) = (   0.7071368  -0.0000300  -0.0000300), wk =   0.0465116

     Dense  grid:    43715 G-vectors     FFT dimensions: (  50,  50,  50)

     Estimated max dynamical RAM per process >       9.18 MB

     Estimated total dynamical RAM >     220.42 MB

     Check: negative core charge=   -0.000017

     The potential is recalculated from file :
     ./out/Na_expansion01.save/charge-density

     Starting wfcs are   20 randomized atomic wfcs +   20 random wfcs

     Band Structure Calculation
     Davidson diagonalization with overlap

     ethr =  4.17E-09,  avg # of iterations = 28.6

     total cpu time spent up to now is     3559.2 secs

     End of band structure calculation

          k = 0.0000 0.0000 0.0000 (  5577 PWs)   bands (ev):

   -25.2360 -24.8683  -9.4145  -8.7169  -8.7164  -8.2467  -8.0351  -8.0347
    -7.6797   4.2197   4.6099   4.6130   6.6525  10.3668  10.3741  11.5932
    11.6046  12.0892  15.7457  15.7862  15.7899  17.3689  17.3705  17.4577
    17.7065  17.7144  18.9127  21.2423  21.2973  21.5334  23.9731  23.9876
    24.9595  25.7465  25.7562  26.4360  28.3883  28.5925  28.6019  31.7529

          k = 0.0442 0.0442-0.0442 (  5506 PWs)   bands (ev):

   -25.2324 -24.8715  -9.4294  -8.7142  -8.7129  -8.2437  -8.0408  -8.0284
    -7.6832   4.2230   4.5954   4.6197   6.7572  10.3842  10.3982  11.5353
    11.6305  12.1236  15.6719  15.7366  15.7814  16.8816  16.9228  17.4551
    17.9986  18.1363  18.9979  21.2792  21.3835  21.5318  23.9374  23.9577
    24.9581  25.7015  25.7317  26.5793  28.5067  28.6413  28.7177  31.8427

          k = 0.0884 0.0884-0.0884 (  5471 PWs)   bands (ev):

   -25.2217 -24.8813  -9.4716  -8.7049  -8.7022  -8.2333  -8.0583  -8.0136
    -7.6932   4.2308   4.5694   4.6431   7.0409  10.4309  10.4780  11.3616
    11.7238  12.2320  15.4276  15.5819  15.7434  16.3500  16.4285  16.8923
    18.5529  18.6325  19.2232  21.3474  21.3808  21.7769  23.8685  23.9361
    24.9134  25.5263  25.6607  27.0461  28.7235  28.8456  29.0306  32.0274

          k = 0.1326 0.1326-0.1326 (  5472 PWs)   bands (ev):

   -25.2045 -24.8971  -9.5339  -8.6863  -8.6849  -8.2138  -8.0855  -8.0005
    -7.7094   4.2411   4.5674   4.6785   7.4394  10.5144  10.6113  11.1353
    11.8720  12.4067  15.0172  15.3180  15.6321  15.8076  16.0139  16.2682
    19.0210  19.0457  19.5375  21.2684  21.5080  22.2327  23.8450  24.0177
    24.7745  25.2381  25.5337  27.8079  28.9192  29.1697  29.4070  31.8705

          k = 0.1768 0.1768-0.1768 (  5459 PWs)   bands (ev):

   -25.1816 -24.9185  -9.6054  -8.6622  -8.6592  -8.1846  -8.1200  -7.9958
    -7.7318   4.2583   4.5983   4.7208   7.8860  10.6409  10.7936  10.9210
    12.0644  12.6222  14.5383  14.9372  15.3201  15.3388  15.4905  15.9146
    19.2690  19.3783  19.9196  21.1827  21.7926  22.8325  23.9142  24.2287
    24.5479  24.8998  25.3606  28.6789  29.1646  29.3756  29.7261  31.1147

          k = 0.2210 0.2210-0.2210 (  5450 PWs)   bands (ev):

   -25.1541 -24.9443  -9.6743  -8.6362  -8.6278  -8.1578  -8.1472  -8.0004
    -7.7602   4.2852   4.6496   4.7637   8.3183  10.7217  10.8477  11.0150
    12.2889  12.8330  14.1068  14.4768  14.7298  14.9503  15.1716  15.6373
    19.3988  19.5866  20.2361  21.2206  22.1644  23.5585  24.0802  24.2469
    24.3724  24.7900  25.1598  29.0074  29.2891  29.5477  29.8851  30.7906

          k = 0.2652 0.2652-0.2652 (  5453 PWs)   bands (ev):

   -25.1238 -24.9733  -9.7307  -8.6104  -8.5984  -8.1935  -8.1055  -8.0106
    -7.7931   4.3161   4.7039   4.8005   8.6822  10.5936  11.0759  11.2498
    12.5313  12.9312  13.8536  14.0149  14.2829  14.6260  14.8275  15.3554
    19.4597  19.7457  20.3746  21.4127  22.5399  23.8661  24.0981  24.3089
    24.4762  24.9552  25.2247  28.4127  29.1175  29.4395  29.8678  31.2186

          k = 0.3094 0.3094-0.3094 (  5468 PWs)   bands (ev):

   -25.0939 -25.0023  -9.7674  -8.5903  -8.5774  -8.2202  -8.0677  -8.0213
    -7.8238   4.3403   4.7448   4.8253   8.9350  10.4799  11.3328  11.4476
    12.7705  12.8075  13.6175  13.8859  14.0794  14.3920  14.4812  15.1089
    19.4864  19.8640  20.4080  21.6260  22.8277  23.6352  23.8698  24.5307
    24.7818  25.2719  25.7835  27.5188  28.8855  28.9315  30.0715  30.9267

          k = 0.3536 0.3536-0.3536 (  5460 PWs)   bands (ev):

   -25.0769 -25.0189  -9.7802  -8.5826  -8.5698  -8.2303  -8.0496  -8.0273
    -7.8376   4.3494   4.7600   4.8341   9.0298  10.4284  11.4652  11.5294
    12.6915  12.9126  13.4160  13.9971  14.0768  14.2507  14.3032  15.0011
    19.4940  19.9102  20.4127  21.7167  22.9390  23.5398  23.7796  24.6549
    24.6803  25.6505  26.3658  26.7746  28.6755  28.7855  30.0791  30.8299

          k = 0.2652 0.4420-0.2652 (  5468 PWs)   bands (ev):

   -25.0829 -25.0118  -9.8208  -8.7113  -8.5061  -8.2337  -8.0216  -7.9823
    -7.7911   4.3287   4.7934   4.8350   8.8435  10.5947  11.3161  11.5867
    12.5408  13.0584  13.1653  13.9533  14.2651  14.4471  14.6779  15.2641
    18.9041  19.6511  20.5191  21.7176  22.4859  22.9173  23.7506  24.1413
    25.4478  26.1991  26.4899  27.4769  28.6105  29.1380  29.7168  30.5114

          k = 0.1768 0.5304-0.1768 (  5467 PWs)   bands (ev):

   -25.0937 -24.9984  -9.9145  -8.8298  -8.5318  -8.2139  -8.0240  -7.8339
    -7.6936   4.2441   4.8175   4.9302   8.5693  10.6353  11.2470  11.5512
    12.6153  12.8584  13.0872  14.1863  14.4390  14.8726  15.3326  15.8191
    18.1450  18.8819  20.4797  20.9884  21.6749  22.8305  23.6409  24.1534
    25.4373  26.3796  27.1950  28.5894  28.8599  29.5039  29.5516  30.4787

          k = 0.0884 0.6187-0.0884 (  5469 PWs)   bands (ev):

   -25.1019 -24.9876 -10.0042  -8.8824  -8.5920  -8.2359  -7.9677  -7.7240
    -7.6100   4.1411   4.8566   5.0368   8.3151  10.7982  11.1420  11.4029
    12.6443  13.0715  13.2230  14.1499  14.1905  15.5065  15.9414  16.3443
    17.4847  18.4250  19.7769  20.5708  21.2621  23.3085  23.6219  24.2452
    24.9131  25.9256  27.1759  29.1014  29.4320  29.6692  30.0194  30.6421

          k =-0.0000 0.7071-0.0000 (  5434 PWs)   bands (ev):

   -25.1048 -24.9835 -10.0405  -8.8917  -8.6173  -8.2620  -7.9296  -7.6879
    -7.5768   4.0989   4.8766   5.0806   8.1933  10.9696  11.0606  11.3409
    12.8291  13.0624  13.4127  13.8683  14.0379  15.8054  16.2254  16.6245
    17.1368  18.3317  19.3809  20.4399  21.1689  23.6331  23.7031  24.6423
    24.8742  25.0797  26.6288  29.1354  29.6406  29.7517  30.3158  30.5766

          k = 0.0884 0.6187 0.0884 (  5469 PWs)   bands (ev):

   -25.1095 -24.9796 -10.0237  -8.8583  -8.5959  -8.2729  -7.9625  -7.7099
    -7.5858   4.1150   4.8564   5.0587   8.2576  10.7892  11.2132  11.4012
    12.6201  12.8301  13.5821  14.1602  14.2062  15.5243  15.6786  16.4888
    17.7007  18.2283  19.8249  20.2739  21.4137  23.2015  23.6103  24.0645
    25.1533  26.2425  27.0746  29.1754  29.5373  29.6956  29.8299  30.5478

          k = 0.1768 0.5303 0.1768 (  5467 PWs)   bands (ev):

   -25.1197 -24.9712  -9.9783  -8.7651  -8.5319  -8.3277  -8.0543  -7.7660
    -7.5921   4.1188   4.8440   5.0047   8.3629  10.7988  11.5016  11.5257
    12.1285  12.8657  13.4583  14.2395  14.5257  14.8716  15.0448  16.0540
    18.5012  18.6450  19.9716  20.9636  21.7135  22.8940  23.3947  24.1442
    25.6421  26.6956  27.0588  28.2297  29.3379  29.3570  29.8886  30.3306

          k = 0.2651 0.4419 0.2651 (  5468 PWs)   bands (ev):

   -25.1288 -24.9640  -9.9234  -8.6367  -8.5154  -8.3299  -8.1812  -7.8697
    -7.5642   4.0588   4.8904   4.9496   8.5075  11.0987  11.3113  11.7945
    12.2948  12.6448  13.4225  13.8219  13.9343  14.8125  14.8764  15.4255
    19.1099  19.7034  20.2170  21.7547  21.9937  23.0178  23.3940  24.2036
    25.6176  26.0456  26.4505  27.5089  28.5108  28.6445  30.2811  30.8275

          k = 0.3535 0.3535 0.3535 (  5456 PWs)   bands (ev):

   -25.1322 -24.9613  -9.8969  -8.5536  -8.5529  -8.2642  -8.2636  -7.9456
    -7.5454   4.0158   4.9246   4.9266   8.6242  11.1670  11.1829  11.8764
    12.6323  12.6475  13.4188  13.4236  13.5791  14.8640  14.8673  15.0663
    19.4737  20.3479  20.3774  21.8409  21.8698  23.1739  24.4630  24.4726
    24.7286  24.7422  26.7983  26.9731  28.3344  28.3884  30.3754  31.6681

          k = 0.3241 0.3241 0.3241 (  5468 PWs)   bands (ev):

   -25.1349 -24.9588  -9.8896  -8.5585  -8.5578  -8.2582  -8.2576  -7.9560
    -7.5412   4.0120   4.9190   4.9209   8.6066  11.1455  11.1607  11.8457
    12.5857  12.5987  13.4968  13.5002  13.5949  14.8850  14.8883  15.1514
    19.4573  20.3446  20.3739  21.8119  21.8401  23.1900  24.3965  24.4068
    24.7647  24.7782  26.2148  27.5766  28.4193  28.4710  30.2741  31.7006

          k = 0.2946 0.2946 0.2946 (  5468 PWs)   bands (ev):

   -25.1424 -24.9519  -9.8681  -8.5719  -8.5712  -8.2416  -8.2410  -7.9843
    -7.5311   4.0021   4.9026   4.9046   8.5517  11.0852  11.0986  11.7600
    12.4796  12.4890  13.6689  13.6908  13.6922  14.9461  14.9493  15.3715
    19.4114  20.3325  20.3609  21.7291  21.7548  23.2265  24.2401  24.2528
    24.8470  24.8611  25.5971  28.2616  28.6475  28.6929  30.0415  31.7995

          k = 0.2652 0.2652 0.2652 (  5453 PWs)   bands (ev):

   -25.1533 -24.9419  -9.8332  -8.5906  -8.5900  -8.2175  -8.2170  -8.0245
    -7.5207   3.9895   4.8766   4.8787   8.4536  10.9966  11.0073  11.6440
    12.3551  12.3609  13.8355  13.9502  13.9505  15.0428  15.0458  15.6627
    19.3431  20.3044  20.3306  21.6038  21.6246  23.2447  24.0500  24.0648
    24.9573  24.9719  25.0627  28.9297  28.9590  28.9936  29.7682  31.8236

          k = 0.2357 0.2357 0.2357 (  5450 PWs)   bands (ev):

   -25.1661 -24.9302  -9.7869  -8.6119  -8.6114  -8.1894  -8.1890  -8.0703
    -7.5151   3.9792   4.8430   4.8452   8.3055  10.8926  10.9004  11.5400
    12.2288  12.2316  14.0931  14.2474  14.2480  15.1680  15.1709  15.9725
    19.2605  20.2436  20.2653  21.4591  21.4713  23.1731  23.8704  23.8854
    24.6887  25.0867  25.1016  29.2648  29.2884  29.4983  29.5033  31.1073

          k = 0.2063 0.2063 0.2063 (  5450 PWs)   bands (ev):

   -25.1795 -24.9180  -9.7315  -8.6335  -8.6330  -8.1599  -8.1595  -8.1162
    -7.5179   3.9767   4.8044   4.8068   8.1056  10.7850  10.7899  11.4849
    12.1059  12.1070  14.4150  14.5669  14.5679  15.3147  15.3173  16.2689
    19.1683  20.1232  20.1374  21.3290  21.3302  22.9589  23.7318  23.7450
    24.5331  25.2251  25.2398  29.2455  29.4926  29.5026  29.5340  30.9663

          k = 0.1768 0.1768 0.1768 (  5459 PWs)   bands (ev):

   -25.1927 -24.9062  -9.6701  -8.6540  -8.6535  -8.1584  -8.1309  -8.1305
    -7.5306   3.9871   4.7635   4.7660   7.8603  10.6821  10.6844  11.4956
    11.9875  11.9905  14.7669  14.8954  14.8968  15.4813  15.4835  16.5397
    19.0670  19.9161  19.9220  21.2322  21.2480  22.6581  23.6503  23.6600
    24.5425  25.3627  25.3770  28.9411  29.0230  29.5753  29.5772  31.5026

          k = 0.1473 0.1473 0.1473 (  5459 PWs)   bands (ev):

   -25.2049 -24.8954  -9.6067  -8.6724  -8.6719  -8.1936  -8.1040  -8.1036
    -7.5530   4.0132   4.7230   4.7257   7.5874  10.5895  10.5906  11.5691
    11.8784  11.8837  15.1062  15.2056  15.2077  15.6797  15.6814  16.7855
    18.9588  19.6203  19.6212  21.1903  21.2193  22.3614  23.6320  23.6369
    24.6257  25.4894  25.5030  28.2592  28.8312  29.4974  29.5058  32.1900

          k = 0.1179 0.1179 0.1179 (  5474 PWs)   bands (ev):

   -25.2156 -24.8860  -9.5460  -8.6880  -8.6875  -8.2196  -8.0805  -8.0801
    -7.5830   4.0547   4.6858   4.6886   7.3105  10.5103  10.5133  11.6880
    11.7824  11.7897  15.3882  15.4510  15.4539  15.9437  15.9449  17.0132
    18.8588  19.2568  19.2603  21.1877  21.2267  22.1087  23.6717  23.6730
    24.7278  25.5955  25.6082  27.6363  28.6730  29.3050  29.3162  32.5980

          k = 0.0884 0.0884 0.0884 (  5471 PWs)   bands (ev):

   -25.2243 -24.8784  -9.4923  -8.7005  -8.7000  -8.2361  -8.0611  -8.0608
    -7.6167   4.1075   4.6542   4.6571   7.0533  10.4476  10.4524  11.7027
    11.7117  11.8280  15.5836  15.6124  15.6158  16.2854  16.2865  17.2164
    18.7992  18.8534  18.8582  21.2036  21.2499  21.8978  23.7526  23.7586
    24.8231  25.6740  25.6858  27.1196  28.5488  29.0577  29.0691  32.2837

          k = 0.0589 0.0589 0.0589 (  5489 PWs)   bands (ev):

   -25.2307 -24.8728  -9.4503  -8.7096  -8.7091  -8.2440  -8.0468  -8.0465
    -7.6484   4.1618   4.6301   4.6331   6.8421  10.4027  10.4088  11.6429
    11.6532  11.9599  15.6908  15.7124  15.7159  16.6729  16.6741  17.3636
    18.4303  18.4353  18.8125  21.2230  21.2742  21.7194  23.8537  23.8641
    24.8975  25.7213  25.7321  26.7398  28.4597  28.8212  28.8319  32.0005

          k = 0.0295 0.0295 0.0295 (  5531 PWs)   bands (ev):

   -25.2347 -24.8694  -9.4236  -8.7151  -8.7146  -8.2464  -8.0380  -8.0377
    -7.6713   4.2037   4.6151   4.6181   6.7020  10.3758  10.3828  11.6058
    11.6169  12.0546  15.7350  15.7681  15.7717  17.0750  17.0759  17.4378
    18.0085  18.0139  18.8762  21.2372  21.2913  21.5858  23.9391  23.9526
    24.9438  25.7418  25.7518  26.5118  28.4062  28.6533  28.6631  31.8167

          k = 0.0000 0.0000 0.0000 (  5577 PWs)   bands (ev):

   -25.2360 -24.8683  -9.4145  -8.7169  -8.7164  -8.2467  -8.0351  -8.0347
    -7.6797   4.2197   4.6099   4.6130   6.6525  10.3668  10.3741  11.5932
    11.6046  12.0892  15.7457  15.7862  15.7899  17.3689  17.3705  17.4577
    17.7065  17.7144  18.9127  21.2423  21.2973  21.5334  23.9731  23.9876
    24.9595  25.7465  25.7562  26.4360  28.3883  28.5925  28.6019  31.7529

          k = 0.0442-0.0442 0.0442 (  5506 PWs)   bands (ev):

   -25.2324 -24.8715  -9.4294  -8.7139  -8.7132  -8.2437  -8.0407  -8.0285
    -7.6832   4.2231   4.5941   4.6210   6.7571  10.3873  10.3951  11.5296
    11.6362  12.1236  15.6721  15.7354  15.7824  16.8811  16.9217  17.4589
    17.9984  18.1344  18.9977  21.3052  21.3537  21.5363  23.9339  23.9600
    24.9575  25.7058  25.7276  26.5801  28.5089  28.6356  28.7216  31.8433

          k = 0.0884-0.0884 0.0884 (  5471 PWs)   bands (ev):

   -25.2217 -24.8813  -9.4717  -8.7046  -8.7025  -8.2333  -8.0582  -8.0137
    -7.6932   4.2311   4.5680   4.6444   7.0405  10.4336  10.4756  11.3558
    11.7294  12.2321  15.4277  15.5807  15.7444  16.3488  16.4277  16.8955
    18.5528  18.6322  19.2229  21.3660  21.3691  21.7720  23.8613  23.9394
    24.9115  25.5295  25.6579  27.0487  28.7243  28.8440  29.0321  32.0304

          k = 0.1326-0.1326 0.1326 (  5472 PWs)   bands (ev):

   -25.2045 -24.8971  -9.5341  -8.6859  -8.6852  -8.2138  -8.0854  -8.0006
    -7.7095   4.2418   4.5659   4.6797   7.4386  10.5167  10.6096  11.1294
    11.8772  12.4072  15.0171  15.3167  15.6332  15.8066  16.0126  16.2712
    19.0238  19.0451  19.5371  21.2591  21.5246  22.2273  23.8354  24.0210
    24.7717  25.2400  25.5319  27.8117  28.9170  29.1758  29.4044  31.8762

          k = 0.1768-0.1768 0.1768 (  5459 PWs)   bands (ev):

   -25.1816 -24.9184  -9.6055  -8.6625  -8.6586  -8.1846  -8.1199  -7.9958
    -7.7319   4.2593   4.5967   4.7219   7.8848  10.6428  10.7928  10.9146
    12.0692  12.6235  14.5383  14.9361  15.3210  15.3380  15.4905  15.9165
    19.2744  19.3778  19.9188  21.1764  21.8041  22.8288  23.9026  24.2336
    24.5442  24.8993  25.3594  28.6823  29.1615  29.3881  29.7184  31.1176

          k = 0.2210-0.2210 0.2210 (  5450 PWs)   bands (ev):

   -25.1541 -24.9443  -9.6745  -8.6365  -8.6271  -8.1577  -8.1472  -8.0005
    -7.7604   4.2864   4.6481   4.7647   8.3166  10.7159  10.8480  11.0146
    12.2932  12.8362  14.1068  14.4763  14.7296  14.9491  15.1720  15.6391
    19.4061  19.5860  20.2338  21.2174  22.1718  23.5597  24.0663  24.2407
    24.3784  24.7870  25.1590  28.9980  29.3016  29.5504  29.8877  30.7860

          k = 0.2652-0.2652 0.2652 (  5453 PWs)   bands (ev):

   -25.1238 -24.9733  -9.7310  -8.6107  -8.5977  -8.1934  -8.1055  -8.0108
    -7.7933   4.3174   4.7024   4.8015   8.6803  10.5855  11.0766  11.2504
    12.5349  12.9382  13.8528  14.0152  14.2814  14.6241  14.8279  15.3576
    19.4680  19.7453  20.3708  21.4120  22.5447  23.8720  24.1000  24.2933
    24.4674  24.9544  25.2251  28.3984  29.1422  29.4343  29.8629  31.2265

          k = 0.3094-0.3094 0.3094 (  5468 PWs)   bands (ev):

   -25.0939 -25.0023  -9.7677  -8.5906  -8.5766  -8.2201  -8.0676  -8.0214
    -7.8241   4.3417   4.7434   4.8263   8.9332  10.4704  11.3321  11.4491
    12.7730  12.8182  13.6192  13.8852  14.0762  14.3893  14.4816  15.1115
    19.4951  19.8637  20.4035  21.6264  22.8311  23.6361  23.8716  24.5125
    24.7800  25.2786  25.7776  27.5056  28.9076  28.9253  30.0627  30.9447

          k = 0.3536-0.3536 0.3536 (  5460 PWs)   bands (ev):

   -25.0770 -25.0188  -9.7805  -8.5829  -8.5689  -8.2302  -8.0494  -8.0274
    -7.8380   4.3508   4.7586   4.8351   9.0283  10.4183  11.4634  11.5313
    12.7037  12.9137  13.4192  13.9982  14.0711  14.2515  14.3001  15.0042
    19.5028  19.9100  20.4081  21.7174  22.9419  23.5399  23.7814  24.6327
    24.6809  25.6725  26.3424  26.7679  28.6558  28.8193  30.0699  30.8482

          k = 0.4125-0.2947 0.2947 (  5470 PWs)   bands (ev):

   -25.0799 -25.0155  -9.7992  -8.6632  -8.5191  -8.2322  -8.0258  -8.0166
    -7.8163   4.3430   4.7768   4.8308   8.9316  10.5195  11.3840  11.5511
    12.6026  13.0364  13.2636  13.9347  14.1929  14.3382  14.4998  15.1258
    19.1615  19.8627  20.4407  21.7644  22.7232  23.2064  23.7012  24.2543
    25.2496  26.0862  26.2329  27.1314  28.6609  28.9254  29.9156  30.6777

          k = 0.4714-0.2357 0.2357 (  5464 PWs)   bands (ev):

   -25.0865 -25.0075  -9.8492  -8.7568  -8.5033  -8.2306  -8.0245  -7.9347
    -7.7602   4.3102   4.8021   4.8553   8.7482  10.6303  11.2649  11.6025
    12.5315  13.0390  13.0710  14.0429  14.3236  14.5684  14.8894  15.4369
    18.6576  19.3827  20.5600  21.5805  22.1923  22.7639  23.7210  24.1425
    25.5571  26.1726  26.8141  27.9659  28.6021  29.3055  29.4901  30.3533

          k = 0.5304-0.1768 0.1768 (  5467 PWs)   bands (ev):

   -25.0937 -24.9984  -9.9149  -8.8296  -8.5308  -8.2143  -8.0241  -7.8342
    -7.6933   4.2471   4.8171   4.9284   8.5687  10.6413  11.2337  11.5515
    12.6212  12.8507  13.0857  14.1863  14.4421  14.8720  15.3364  15.8176
    18.1570  18.8772  20.4773  21.0026  21.6890  22.8264  23.6454  24.1391
    25.4383  26.3575  27.2208  28.5679  28.8899  29.4808  29.5176  30.4884

          k = 0.5893-0.1179 0.1179 (  5461 PWs)   bands (ev):

   -25.0996 -24.9906  -9.9787  -8.8715  -8.5729  -8.2230  -7.9908  -7.7531
    -7.6334   4.1750   4.8428   5.0038   8.3949  10.7264  11.1700  11.4509
    12.6502  12.9158  13.1922  14.1836  14.3383  15.3024  15.7606  16.1822
    17.6936  18.5295  20.0618  20.6293  21.3853  23.1157  23.6178  24.1513
    25.0837  26.1842  27.3180  28.9322  29.1810  29.5852  30.1908  30.5121

          k = 0.6482-0.0589 0.0589 (  5463 PWs)   bands (ev):

   -25.1034 -24.9854 -10.0245  -8.8881  -8.6048  -8.2495  -7.9478  -7.7042
    -7.5915   4.1217   4.8663   5.0585   8.2514  10.8857  11.0940  11.3733
    12.6679  13.1843  13.2390  14.0348  14.1071  15.6670  16.0947  16.4800
    17.3155  18.3758  19.5784  20.5020  21.2318  23.5100  23.6277  24.3815
    24.7662  25.6082  27.0239  29.0658  29.5376  29.6607  30.1438  30.5920

          k = 0.7071-0.0000-0.0000 (  5434 PWs)   bands (ev):

   -25.1047 -24.9836 -10.0411  -8.8915  -8.6163  -8.2624  -7.9298  -7.6884
    -7.5763   4.1027   4.8755   5.0785   8.1944  10.9796  11.0473  11.3450
    12.8217  13.0400  13.4159  13.8753  14.0403  15.8052  16.2284  16.6242
    17.1339  18.3446  19.3982  20.4354  21.1945  23.6327  23.7109  24.6372
    24.8434  25.0691  26.6917  29.0675  29.6080  29.6908  30.3431  30.5943

     the Fermi energy is     5.8776 ev
     (compare with:     5.8776 eV, computed in scf)

     Writing output data file ./out/Na_expansion01.save/

     init_run     :      4.81s CPU      4.70s WALL (       1 calls)
     electrons    :   3445.75s CPU   3552.86s WALL (       1 calls)

     Called by init_run:
     wfcinit      :      0.00s CPU      0.03s WALL (       1 calls)
     potinit      :      0.70s CPU      0.78s WALL (       1 calls)
     hinit0       :      1.92s CPU      1.72s WALL (       1 calls)

     Called by electrons:
     c_bands      :   3445.75s CPU   3552.86s WALL (       1 calls)
     v_of_rho     :      0.64s CPU      0.66s WALL (       1 calls)
     newd         :      2.04s CPU      2.02s WALL (       1 calls)

     Called by c_bands:
     init_us_2    :      0.14s CPU      0.24s WALL (      43 calls)
     cegterg      :   3235.26s CPU   3336.03s WALL (      81 calls)

     Called by *egterg:
     cdiaghg      :     12.52s CPU     13.56s WALL (    1272 calls)
     h_psi        :   3131.37s CPU   3214.69s WALL (    1353 calls)
     s_psi        :      0.63s CPU      0.46s WALL (    1353 calls)
     g_psi        :      4.03s CPU      3.37s WALL (    1229 calls)

     Called by h_psi:
     h_psi:calbec :     52.16s CPU     56.50s WALL (    1353 calls)
     vloc_psi     :   3074.30s CPU   3152.55s WALL (    1353 calls)
     add_vuspsi   :      0.31s CPU      0.59s WALL (    1353 calls)

     General routines
     calbec       :     52.08s CPU     56.48s WALL (    1353 calls)
     fft          :      0.75s CPU      0.80s WALL (      12 calls)
     fftw         :   2763.64s CPU   2864.19s WALL (   52864 calls)
     davcio       :      0.01s CPU      0.34s WALL (      86 calls)

     Parallel routines
     fft_scatt_xy :    175.65s CPU    167.13s WALL (   52876 calls)
     fft_scatt_yz :   1482.07s CPU   1647.16s WALL (   52876 calls)

     PWSCF        :  57m37.16s CPU  59m25.24s WALL


   This run was terminated on:  14:45:56  16Oct2024            

=------------------------------------------------------------------------------=
   JOB DONE.
=------------------------------------------------------------------------------=
