
     Program PWSCF v.6.6 starts on 16Oct2024 at 20:26:41 

     This program is part of the open-source Quantum ESPRESSO suite
     for quantum simulation of materials; please cite
         "P. Giannozzi et al., J. Phys.:Condens. Matter 21 395502 (2009);
         "P. Giannozzi et al., J. Phys.:Condens. Matter 29 465901 (2017);
          URL http://www.quantum-espresso.org", 
     in publications or presentations arising from this work. More details at
     http://www.quantum-espresso.org/quote

     Parallel version (MPI & OpenMP), running on     768 processor cores
     Number of MPI processes:                48
     Threads/MPI process:                    16

     MPI processes distributed on     2 nodes
     R & G space division:  proc/nbgrp/npool/nimage =      48
     Fft bands division:     nmany     =       1
     Waiting for input...
     Reading input from standard input
Warning: card  &IONS ignored
Warning: card     ION_DYNAMICS = 'BFGS' ignored
Warning: card  / ignored
Warning: card  &CELL ignored
Warning: card     CELL_FACTOR = 6 ignored
Warning: card  / ignored

     Current dimensions of program PWSCF are:
     Max number of different atomic species (ntypx) = 10
     Max number of k-points (npk) =  40000
     Max angular momentum in pseudopotentials (lmaxx) =  3

     Atomic positions and unit cell read from directory:
     ./out/Na_expansion01.save/
     Atomic positions from file used, from input discarded


     Subspace diagonalization in iterative solution of the eigenvalue problem:
     one sub-group per band group will be used
     scalapack distributed-memory algorithm (size of sub-group:  6*  6 procs)

     Message from routine setup:
     using ibrav=0 with symmetry is DISCOURAGED, use correct ibrav instead

     Parallelization info
     --------------------
     sticks:   dense  smooth     PW     G-vecs:    dense   smooth      PW
     Min          26      21      6                  631      460      77
     Max          27      22      7                  635      465      83
     Sum        1285    1039    313                30395    22227    3839



     bravais-lattice index     =            0
     lattice parameter (alat)  =       6.1035  a.u.
     unit-cell volume          =     308.1008 (a.u.)^3
     number of atoms/cell      =            3
     number of atomic types    =            2
     number of electrons       =        24.00
     number of Kohn-Sham states=           40
     kinetic-energy cutoff     =      66.0000  Ry
     charge density cutoff     =     323.0000  Ry
     Exchange-correlation= PBE
                           (   1   4   3   4   0   0   0)

     celldm(1)=   7.583545  celldm(2)=   0.000000  celldm(3)=   0.000000
     celldm(4)=   0.000000  celldm(5)=   0.000000  celldm(6)=   0.000000

     crystal axes: (cart. coord. in units of alat)
               a(1) = (   0.878576   0.878576   0.000551 )  
               a(2) = (   0.000551   0.878576   0.878576 )  
               a(3) = (   0.878576   0.000551   0.878576 )  

     reciprocal axes: (cart. coord. in units 2 pi/alat)
               b(1) = (  0.569281  0.569281 -0.569638 )  
               b(2) = ( -0.569638  0.569281  0.569281 )  
               b(3) = (  0.569281 -0.569638  0.569281 )  


     PseudoPot. # 1 for Na read from file:
     /global/home/hpc4995/potential/Na.pbe-spnl-rrkjus_psl.1.0.0.UPF
     MD5 check sum: 1d26e2eb43446ab266a33aefbd559171
     Pseudo is Ultrasoft + core correction, Zval =  9.0
     Generated using "atomic" code by A. Dal Corso v.6.3
     Using radial grid of 1121 points,  4 beta functions with: 
                l(1) =   0
                l(2) =   0
                l(3) =   1
                l(4) =   1
     Q(r) pseudized with 0 coefficients 


     PseudoPot. # 2 for O  read from file:
     /global/home/hpc4995/potential/O.pbe-n-rrkjus_psl.0.1.UPF
     MD5 check sum: 73b3d1dec572cf22214b1d95c6304b69
     Pseudo is Ultrasoft + core correction, Zval =  6.0
     Generated using "atomic" code by A. Dal Corso v.6.3MaX
     Using radial grid of 1095 points,  4 beta functions with: 
                l(1) =   0
                l(2) =   0
                l(3) =   1
                l(4) =   1
     Q(r) pseudized with 0 coefficients 


     atomic species   valence    mass     pseudopotential
        Na             9.00    22.99000     Na( 1.00)
        O              6.00    15.99900     O ( 1.00)

     12 Sym. Ops., with inversion, found



   Cartesian axes

     site n.     atom                  positions (alat units)
         1           Na  tau(   1) = (   0.4393877   0.4393877   0.4393877  )
         2           O   tau(   2) = (  -0.0000000   0.0000000   0.0000000  )
         3           Na  tau(   3) = (  -0.4393877  -0.4393877  -0.4393877  )

     number of k points=   344  Gaussian smearing, width (Ry)=  0.0200

     Number of k-points >= 100: set verbosity='high' to print them.

     Dense  grid:    30395 G-vectors     FFT dimensions: (  45,  45,  45)

     Smooth grid:    22227 G-vectors     FFT dimensions: (  40,  40,  40)

     Estimated max dynamical RAM per process >       1.56 MB

     Estimated total dynamical RAM >      74.79 MB

     Check: negative core charge=   -0.000024

     The potential is recalculated from file :
     ./out/Na_expansion01.save/charge-density

     Starting wfcs are   14 randomized atomic wfcs +   26 random wfcs

     Band Structure Calculation
     Davidson diagonalization with overlap
