
     Program PWSCF v.6.6 starts on 16Oct2024 at 11:34:42 

     This program is part of the open-source Quantum ESPRESSO suite
     for quantum simulation of materials; please cite
         "P. Giannozzi et al., J. Phys.:Condens. Matter 21 395502 (2009);
         "P. Giannozzi et al., J. Phys.:Condens. Matter 29 465901 (2017);
          URL http://www.quantum-espresso.org", 
     in publications or presentations arising from this work. More details at
     http://www.quantum-espresso.org/quote

     Parallel version (MPI & OpenMP), running on     144 processor cores
     Number of MPI processes:                24
     Threads/MPI process:                     6

     MPI processes distributed on     1 nodes
     R & G space division:  proc/nbgrp/npool/nimage =      24
     Fft bands division:     nmany     =       1
     Waiting for input...
     Reading input from standard input
Warning: card  &IONS ignored
Warning: card     ION_DYNAMICS = 'BFGS' ignored
Warning: card  / ignored
Warning: card  &CELL ignored
Warning: card     CELL_FACTOR = 6 ignored
Warning: card  / ignored

     Current dimensions of program PWSCF are:
     Max number of different atomic species (ntypx) = 10
     Max number of k-points (npk) =  40000
     Max angular momentum in pseudopotentials (lmaxx) =  3

     Atomic positions and unit cell read from directory:
     ./out/Na_expansion01.save/
     Atomic positions from file used, from input discarded


     Subspace diagonalization in iterative solution of the eigenvalue problem:
     one sub-group per band group will be used
     scalapack distributed-memory algorithm (size of sub-group:  4*  4 procs)

     Message from routine setup:
     using ibrav=0 with symmetry is DISCOURAGED, use correct ibrav instead

     Parallelization info
     --------------------
     sticks:   dense  smooth     PW     G-vecs:    dense   smooth      PW
     Min          53      53     15                 1242     1242     189
     Max          54      54     16                 1245     1245     192
     Sum        1273    1273    361                29849    29849    4573



     bravais-lattice index     =            0
     lattice parameter (alat)  =       6.1035  a.u.
     unit-cell volume          =     308.1008 (a.u.)^3
     number of atoms/cell      =            3
     number of atomic types    =            2
     number of electrons       =        24.00
     number of Kohn-Sham states=           40
     kinetic-energy cutoff     =      80.0000  Ry
     charge density cutoff     =     320.0000  Ry
     Exchange-correlation= PBE
                           (   1   4   3   4   0   0   0)

     celldm(1)=   7.583545  celldm(2)=   0.000000  celldm(3)=   0.000000
     celldm(4)=   0.000000  celldm(5)=   0.000000  celldm(6)=   0.000000

     crystal axes: (cart. coord. in units of alat)
               a(1) = (   0.878576   0.878576   0.000551 )  
               a(2) = (   0.000551   0.878576   0.878576 )  
               a(3) = (   0.878576   0.000551   0.878576 )  

     reciprocal axes: (cart. coord. in units 2 pi/alat)
               b(1) = (  0.569281  0.569281 -0.569638 )  
               b(2) = ( -0.569638  0.569281  0.569281 )  
               b(3) = (  0.569281 -0.569638  0.569281 )  


     PseudoPot. # 1 for Na read from file:
     /global/home/hpc4995/potential/Na.pbe-spnl-rrkjus_psl.1.0.0.UPF
     MD5 check sum: 1d26e2eb43446ab266a33aefbd559171
     Pseudo is Ultrasoft + core correction, Zval =  9.0
     Generated using "atomic" code by A. Dal Corso v.6.3
     Using radial grid of 1121 points,  4 beta functions with: 
                l(1) =   0
                l(2) =   0
                l(3) =   1
                l(4) =   1
     Q(r) pseudized with 0 coefficients 


     PseudoPot. # 2 for O  read from file:
     /global/home/hpc4995/potential/O.pbe-n-rrkjus_psl.0.1.UPF
     MD5 check sum: 73b3d1dec572cf22214b1d95c6304b69
     Pseudo is Ultrasoft + core correction, Zval =  6.0
     Generated using "atomic" code by A. Dal Corso v.6.3MaX
     Using radial grid of 1095 points,  4 beta functions with: 
                l(1) =   0
                l(2) =   0
                l(3) =   1
                l(4) =   1
     Q(r) pseudized with 0 coefficients 


     atomic species   valence    mass     pseudopotential
        Na             9.00    22.99000     Na( 1.00)
        O              6.00    15.99900     O ( 1.00)

     12 Sym. Ops., with inversion, found



   Cartesian axes

     site n.     atom                  positions (alat units)
         1           Na  tau(   1) = (   0.4393877   0.4393877   0.4393877  )
         2           O   tau(   2) = (  -0.0000000   0.0000000   0.0000000  )
         3           Na  tau(   3) = (  -0.4393877  -0.4393877  -0.4393877  )

     number of k points=    43  Gaussian smearing, width (Ry)=  0.0200
                       cart. coord. in units 2pi/alat
        k(    1) = (   0.0000000   0.0000000   0.0000000), wk =   0.0465116
        k(    2) = (   0.0355801   0.0355801  -0.0356024), wk =   0.0465116
        k(    3) = (   0.0711602   0.0711602  -0.0712048), wk =   0.0465116
        k(    4) = (   0.1067402   0.1067402  -0.1068072), wk =   0.0465116
        k(    5) = (   0.1423203   0.1423203  -0.1424096), wk =   0.0465116
        k(    6) = (   0.1779004   0.1779004  -0.1780120), wk =   0.0465116
        k(    7) = (   0.2134805   0.2134805  -0.2136144), wk =   0.0465116
        k(    8) = (   0.2490606   0.2490606  -0.2492168), wk =   0.0465116
        k(    9) = (   0.2846406   0.2846406  -0.2848192), wk =   0.0465116
        k(   10) = (   0.2134358   0.3558008  -0.2136591), wk =   0.0465116
        k(   11) = (   0.1422310   0.4269610  -0.1424989), wk =   0.0465116
        k(   12) = (   0.0710262   0.4981211  -0.0713387), wk =   0.0465116
        k(   13) = (  -0.0001786   0.5692813  -0.0001786), wk =   0.0465116
        k(   14) = (   0.0709816   0.4980765   0.0709816), wk =   0.0465116
        k(   15) = (   0.1421417   0.4268717   0.1421417), wk =   0.0465116
        k(   16) = (   0.2133019   0.3556669   0.2133019), wk =   0.0465116
        k(   17) = (   0.2844621   0.2844621   0.2844621), wk =   0.0465116
        k(   18) = (   0.2607379   0.2607379   0.2607379), wk =   0.0465116
        k(   19) = (   0.2370707   0.2370707   0.2370707), wk =   0.0465116
        k(   20) = (   0.2133465   0.2133465   0.2133465), wk =   0.0465116
        k(   21) = (   0.1896224   0.1896224   0.1896224), wk =   0.0465116
        k(   22) = (   0.1659552   0.1659552   0.1659552), wk =   0.0465116
        k(   23) = (   0.1422310   0.1422310   0.1422310), wk =   0.0465116
        k(   24) = (   0.1185069   0.1185069   0.1185069), wk =   0.0465116
        k(   25) = (   0.0948396   0.0948396   0.0948396), wk =   0.0465116
        k(   26) = (   0.0711155   0.0711155   0.0711155), wk =   0.0465116
        k(   27) = (   0.0473914   0.0473914   0.0473914), wk =   0.0465116
        k(   28) = (   0.0237241   0.0237241   0.0237241), wk =   0.0465116
        k(   29) = (   0.0000000   0.0000000   0.0000000), wk =   0.0465116
        k(   30) = (   0.0355801  -0.0356024   0.0355801), wk =   0.0465116
        k(   31) = (   0.0711602  -0.0712048   0.0711602), wk =   0.0465116
        k(   32) = (   0.1067402  -0.1068072   0.1067402), wk =   0.0465116
        k(   33) = (   0.1423203  -0.1424096   0.1423203), wk =   0.0465116
        k(   34) = (   0.1779004  -0.1780120   0.1779004), wk =   0.0465116
        k(   35) = (   0.2134805  -0.2136144   0.2134805), wk =   0.0465116
        k(   36) = (   0.2490606  -0.2492168   0.2490606), wk =   0.0465116
        k(   37) = (   0.2846406  -0.2848192   0.2846406), wk =   0.0465116
        k(   38) = (   0.3320618  -0.2373981   0.2371898), wk =   0.0465116
        k(   39) = (   0.3795398  -0.1899200   0.1896819), wk =   0.0465116
        k(   40) = (   0.4269610  -0.1424989   0.1422310), wk =   0.0465116
        k(   41) = (   0.4743821  -0.0950778   0.0947801), wk =   0.0465116
        k(   42) = (   0.5218601  -0.0475997   0.0472723), wk =   0.0465116
        k(   43) = (   0.5692813  -0.0001786  -0.0001786), wk =   0.0465116

     Dense  grid:    29849 G-vectors     FFT dimensions: (  45,  45,  45)

     Estimated max dynamical RAM per process >       2.31 MB

     Estimated total dynamical RAM >      55.36 MB

     Check: negative core charge=   -0.000023

     The potential is recalculated from file :
     ./out/Na_expansion01.save/charge-density

     Starting wfcs are   14 randomized atomic wfcs +   26 random wfcs

     Band Structure Calculation
     Davidson diagonalization with overlap

     ethr =  4.17E-09,  avg # of iterations = 31.0

     total cpu time spent up to now is     3849.2 secs

     End of band structure calculation

          k = 0.0000 0.0000 0.0000 (  3719 PWs)   bands (ev):

   -47.4037 -47.3394 -19.3940 -19.3935 -19.3934 -19.2224 -19.2223 -19.2222
   -11.8556   2.7291   2.7305   2.7314   4.4704  14.9815  14.9972  15.0000
    16.1231  16.1316  16.1328  16.5201  16.5224  20.2119  23.3642  24.1893
    24.2051  24.2064  32.2639  32.2686  32.2754  34.5122  34.5136  35.9010
    35.9041  35.9353  38.2602  41.7975  41.7998  42.6249  42.6520  42.6812

          k = 0.0356 0.0356-0.0356 (  3724 PWs)   bands (ev):

   -47.4031 -47.3399 -19.3929 -19.3924 -19.3920 -19.2257 -19.2241 -19.2240
   -11.8490   2.6157   2.7276   2.7291   4.6343  14.6143  14.9163  14.9296
    15.8162  15.8224  16.2455  16.9941  16.9983  20.5049  23.5250  24.0913
    24.2604  24.2741  31.7424  31.7490  32.2697  33.9426  33.9575  35.9596
    37.1274  37.1556  38.3478  41.5427  41.5446  42.3536  42.5808  42.6192

          k = 0.0712 0.0712-0.0712 (  3735 PWs)   bands (ev):

   -47.4012 -47.3417 -19.3904 -19.3881 -19.3877 -19.2353 -19.2294 -19.2293
   -11.8300   2.3615   2.7224   2.7239   5.0336  13.8174  14.6365  14.6465
    15.7008  15.7096  16.3659  17.6722  17.6784  21.2493  23.7812  24.0061
    24.4758  24.4882  30.3922  30.4109  32.2461  33.7676  33.7957  36.1224
    38.5940  39.0050  39.0349  40.7185  40.7254  41.6264  42.4776  42.5147

          k = 0.1067 0.1067-0.1068 (  3716 PWs)   bands (ev):

   -47.3981 -47.3446 -19.3864 -19.3808 -19.3804 -19.2497 -19.2380 -19.2379
   -11.8018   2.0833   2.7147   2.7160   5.5484  12.9019  14.2323  14.2405
    15.8527  15.8635  16.4320  18.3595  18.3680  22.0908  23.4905  24.7579
    24.8612  24.8710  28.8519  28.8735  32.1271  33.9294  33.9611  36.3934
    38.9338  39.3002  39.3107  40.6548  40.6877  40.7207  42.3614  42.3892

          k = 0.1423 0.1423-0.1424 (  3721 PWs)   bands (ev):

   -47.3939 -47.3484 -19.3811 -19.3709 -19.3706 -19.2676 -19.2495 -19.2493
   -11.7687   1.8340   2.7056   2.7068   6.1201  11.9735  13.8486  13.8562
    16.1293  16.1408  16.5075  19.0067  19.0180  22.1878  23.9466  25.4410
    25.4476  25.7793  27.3786  27.4007  31.8335  34.2498  34.2826  36.7719
    37.5157  37.5269  38.9585  39.9609  41.0219  41.0362  41.2146  41.2341

          k = 0.1779 0.1779-0.1780 (  3721 PWs)   bands (ev):

   -47.3889 -47.3531 -19.3743 -19.3587 -19.3584 -19.2866 -19.2633 -19.2631
   -11.7358   1.6337   2.6965   2.6977   6.7240  11.0767  13.5337  13.5411
    16.4563  16.4681  16.6320  19.5873  19.6016  21.6739  24.9942  25.8936
    25.9101  26.3976  26.4056  27.0478  31.3213  34.6792  34.7120  35.6295
    35.6404  37.2563  37.6493  39.8960  39.9310  40.1673  41.0686  41.1070

          k = 0.2135 0.2135-0.2136 (  3728 PWs)   bands (ev):

   -47.3832 -47.3586 -19.3663 -19.3446 -19.3443 -19.3051 -19.2788 -19.2786
   -11.7081   1.4895   2.6889   2.6899   7.3524  10.2307  13.3031  13.3106
    16.7702  16.7822  16.8018  20.0928  20.1098  21.1170  24.8495  24.8707
    26.0960  27.3344  27.3363  28.5208  30.6169  33.7725  33.7814  35.2135
    35.2468  35.8451  37.8417  38.8694  38.9062  40.5312  40.9117  40.9501

          k = 0.2491 0.2491-0.2492 (  3729 PWs)   bands (ev):

   -47.3771 -47.3645 -19.3575 -19.3290 -19.3287 -19.3207 -19.2953 -19.2951
   -11.6897   1.4031   2.6838   2.6847   8.0066   9.4421  13.1631  13.1706
    16.9650  17.0014  17.0130  20.4949  20.5141  20.6944  24.0235  24.0444
    27.1157  28.5139  28.5191  29.6954  30.2625  32.0931  32.0996  33.9715
    35.7624  35.7949  38.0154  38.0539  38.5063  40.4522  40.7387  40.8005

          k = 0.2846 0.2846-0.2848 (  3750 PWs)   bands (ev):

   -47.3708 -47.3708 -19.3522 -19.3285 -19.3142 -19.3138 -19.3105 -19.3104
   -11.6832   1.3744   2.6820   2.6829   8.6303   8.7729  13.1162  13.1237
    17.0361  17.0868  17.0985  20.5325  20.6694  20.6887  23.6973  23.7179
    27.6882  29.2536  29.3570  29.3660  31.0831  31.0866  31.5617  32.5200
    36.0808  36.1121  37.5957  37.6360  38.9994  39.8501  40.7613  40.7922

          k = 0.2134 0.3558-0.2137 (  3723 PWs)   bands (ev):

   -47.3749 -47.3666 -19.3943 -19.3704 -19.3583 -19.2799 -19.2676 -19.2614
   -11.6761   1.4706   2.5517   2.6510   8.2725   9.3779  12.6044  13.2213
    16.2709  17.3219  18.0492  19.9819  20.8708  21.4165  23.7480  23.8478
    27.4239  27.9151  29.2441  30.1711  30.8886  31.4562  32.7025  33.5268
    33.5752  35.1523  36.2116  36.6761  39.9428  40.4478  41.0562  41.5161

          k = 0.1422 0.4270-0.1425 (  3717 PWs)   bands (ev):

   -47.3782 -47.3631 -19.4489 -19.4066 -19.3981 -19.2374 -19.2307 -19.2161
   -11.6585   1.6588   2.3363   2.5776   7.8702  10.3501  11.9577  13.4364
    14.9408  18.0726  18.2857  20.3377  21.4000  22.6926  23.8909  24.4859
    26.1988  26.9664  29.0734  29.6984  30.2523  31.8035  32.4406  32.7565
    33.7012  35.4596  35.8572  36.4467  38.6913  40.4395  40.9076  41.5006

          k = 0.0710 0.4981-0.0713 (  3723 PWs)   bands (ev):

   -47.3804 -47.3607 -19.4891 -19.4278 -19.4253 -19.2083 -19.2065 -19.1871
   -11.6404   1.6587   2.3818   2.5073   7.4765  11.0620  12.0944  13.6077
    13.9449  16.6064  19.3186  22.0346  22.8736  23.4463  24.0453  24.8558
    25.2447  26.4812  26.8247  29.2610  30.4843  30.6090  31.1103  33.1560
    33.5889  34.5832  37.6451  38.0963  38.6655  40.2977  40.9324  41.6532

          k =-0.0002 0.5693-0.0002 (  3710 PWs)   bands (ev):

   -47.3812 -47.3598 -19.5037 -19.4349 -19.4346 -19.1982 -19.1980 -19.1771
   -11.6328   1.6004   2.4790   2.4806   7.3018  11.1377  12.5919  13.6670
    13.6747  15.6641  20.2715  22.2128  23.6875  23.6922  24.9127  24.9166
    25.3398  25.3523  25.6982  29.7412  29.9099  29.9246  30.9979  31.8899
    34.0024  35.3972  36.6824  38.6200  39.9221  40.7619  41.4230  43.0227

          k = 0.0710 0.4981 0.0710 (  3722 PWs)   bands (ev):

   -47.3804 -47.3607 -19.4891 -19.4281 -19.4250 -19.2083 -19.2065 -19.1871
   -11.6405   1.6586   2.3805   2.5087   7.4763  11.0622  12.0934  13.6157
    13.9401  16.6039  19.3232  22.0313  22.8789  23.4413  24.0545  24.8524
    25.2290  26.4743  26.8366  29.2474  30.4712  30.6241  31.1152  33.1523
    33.6002  34.5823  37.6487  38.0808  38.6470  40.2966  40.9473  41.6793

          k = 0.1421 0.4269 0.1421 (  3719 PWs)   bands (ev):

   -47.3782 -47.3631 -19.4489 -19.4068 -19.3978 -19.2374 -19.2306 -19.2161
   -11.6587   1.6577   2.3363   2.5788   7.8695  10.3487  11.9600  13.4449
    14.9365  18.0805  18.2801  20.3436  21.3970  22.6859  23.8988  24.4759
    26.1910  26.9524  29.0629  29.7099  30.2356  31.7916  32.4573  32.7541
    33.6958  35.4762  35.8336  36.4459  38.7069  40.4201  40.9420  41.5305

          k = 0.2133 0.3557 0.2133 (  3721 PWs)   bands (ev):

   -47.3749 -47.3667 -19.3943 -19.3705 -19.3580 -19.2799 -19.2675 -19.2614
   -11.6764   1.4689   2.5528   2.6521   8.2710   9.3761  12.6102  13.2303
    16.2667  17.3315  18.0517  19.9751  20.8673  21.4055  23.7573  23.8425
    27.4098  27.9014  29.2321  30.1715  30.8670  31.4427  32.6913  33.5292
    33.5408  35.1706  36.2483  36.6901  39.9633  40.4846  41.0713  41.5016

          k = 0.2845 0.2845 0.2845 (  3750 PWs)   bands (ev):

   -47.3708 -47.3708 -19.3522 -19.3285 -19.3141 -19.3140 -19.3103 -19.3102
   -11.6836   1.3725   2.6833   2.6841   8.6269   8.7724  13.1280  13.1291
    17.0381  17.0930  17.0989  20.5192  20.6714  20.6734  23.7094  23.7120
    27.6718  29.2636  29.3432  29.3444  31.0691  31.0708  31.5382  32.4838
    36.1169  36.1252  37.6211  37.6433  39.0198  39.8788  40.7933  40.8128

          k = 0.2607 0.2607 0.2607 (  3741 PWs)   bands (ev):

   -47.3750 -47.3666 -19.3550 -19.3247 -19.3234 -19.3233 -19.3008 -19.3007
   -11.6865   1.3853   2.6841   2.6849   8.2288   9.1907  13.1489  13.1499
    17.0051  17.0544  17.0602  20.5905  20.5910  20.5948  23.8582  23.8607
    27.3848  28.8874  28.8885  29.5074  30.7388  31.5993  31.6007  33.3369
    35.9585  35.9639  37.8273  37.8465  38.7494  40.1976  40.7887  40.8108

          k = 0.2371 0.2371 0.2371 (  3732 PWs)   bands (ev):

   -47.3792 -47.3625 -19.3606 -19.3341 -19.3340 -19.3160 -19.2897 -19.2896
   -11.6950   1.4236   2.6865   2.6872   7.7844   9.6950  13.2111  13.2122
    16.9179  16.9443  16.9500  20.3825  20.3841  20.7981  24.2639  24.2662
    26.7863  28.1028  28.1039  29.5141  30.1378  32.6062  32.6073  34.5560
    35.6235  35.6253  38.2985  38.3058  38.3165  40.7053  40.7868  40.8623

          k = 0.2133 0.2133 0.2133 (  3726 PWs)   bands (ev):

   -47.3832 -47.3586 -19.3665 -19.3444 -19.3443 -19.3050 -19.2787 -19.2786
   -11.7085   1.4878   2.6902   2.6910   7.3513  10.2268  13.3146  13.3157
    16.7768  16.7824  16.8024  20.0987  20.1000  21.1036  24.8552  24.8573
    26.0890  27.3269  27.3280  28.4980  30.6194  33.7533  33.7542  35.2540
    35.2548  35.8109  37.8677  38.8969  38.9100  40.5400  40.9427  40.9693

          k = 0.1896 0.1896 0.1896 (  3723 PWs)   bands (ev):

   -47.3871 -47.3549 -19.3719 -19.3539 -19.3538 -19.2930 -19.2683 -19.2682
   -11.7261   1.5777   2.6951   2.6958   6.9295  10.7841  13.4585  13.4595
    16.5722  16.5777  16.6851  19.7705  19.7716  21.4690  25.3570  25.5618
    25.5636  26.6435  26.6445  27.4991  31.1062  34.8394  34.8424  35.0289
    35.0307  37.0394  37.4673  39.5664  39.5780  40.2997  41.0448  41.0714

          k = 0.1660 0.1660 0.1660 (  3726 PWs)   bands (ev):

   -47.3907 -47.3515 -19.3770 -19.3628 -19.3627 -19.2802 -19.2585 -19.2584
   -11.7467   1.6928   2.7007   2.7015   6.5193  11.3641  13.6407  13.6417
    16.3525  16.3578  16.5838  19.4084  19.4092  21.8493  24.6230  25.8959
    25.8971  26.5267  26.5287  26.5843  31.5180  34.5666  34.5697  36.2340
    36.2350  37.1112  38.1553  40.0426  40.2898  40.3003  41.1487  41.1751

          k = 0.1422 0.1422 0.1422 (  3717 PWs)   bands (ev):

   -47.3939 -47.3484 -19.3814 -19.3706 -19.3705 -19.2674 -19.2494 -19.2493
   -11.7689   1.8326   2.7068   2.7076   6.1193  11.9662  13.8595  13.8605
    16.1363  16.1414  16.5060  19.0123  19.0130  22.1743  23.9403  25.4422
    25.4437  25.7674  27.3786  27.3808  31.8360  34.2895  34.2931  36.8002
    37.4933  37.4941  38.9452  39.9488  41.0397  41.0452  41.2311  41.2515

          k = 0.1185 0.1185 0.1185 (  3711 PWs)   bands (ev):

   -47.3968 -47.3457 -19.3851 -19.3775 -19.3774 -19.2553 -19.2415 -19.2414
   -11.7912   1.9944   2.7129   2.7138   5.7334  12.5827  14.1096  14.1105
    15.9424  15.9473  16.4507  18.5859  18.5865  22.2389  23.5085  25.0371
    25.0386  25.0607  28.3451  28.3474  32.0556  34.0610  34.0649  36.5363
    38.7116  38.7122  39.0298  40.3869  40.9766  40.9913  41.9360  41.9423

          k = 0.0948 0.0948 0.0948 (  3737 PWs)   bands (ev):

   -47.3992 -47.3435 -19.3882 -19.3833 -19.3832 -19.2444 -19.2349 -19.2348
   -11.8121   2.1730   2.7186   2.7195   5.3683  13.2011  14.3801  14.3810
    15.7902  15.7948  16.4081  18.1374  18.1378  21.8306  23.5453  24.4709
    24.7207  24.7221  29.3580  29.3604  32.1870  33.8920  33.8961  36.3205
    38.8180  39.8081  39.8085  40.1987  40.2026  41.0105  42.5138  42.5365

          k = 0.0711 0.0711 0.0711 (  3737 PWs)   bands (ev):

   -47.4012 -47.3417 -19.3907 -19.3878 -19.3877 -19.2352 -19.2295 -19.2294
   -11.8301   2.3602   2.7235   2.7244   5.0332  13.8056  14.6485  14.6492
    15.7070  15.7110  16.3606  17.6757  17.6761  21.2443  23.7677  24.0032
    24.4866  24.4880  30.3835  30.3862  32.2516  33.8031  33.8070  36.1520
    38.5936  39.0005  39.0015  40.7072  40.7082  41.6048  42.4913  42.5191

          k = 0.0474 0.0474 0.0474 (  3734 PWs)   bands (ev):

   -47.4026 -47.3404 -19.3926 -19.3910 -19.3909 -19.2282 -19.2255 -19.2254
   -11.8439   2.5381   2.7273   2.7282   4.7481  14.3605  14.8624  14.8637
    15.7434  15.7460  16.2874  17.2173  17.2178  20.7128  23.6458  23.9953
    24.3272  24.3286  31.3370  31.3403  32.2738  33.8510  33.8544  36.0316
    37.7306  37.7326  38.4137  41.3307  41.3321  42.1210  42.5616  42.5910

          k = 0.0237 0.0237 0.0237 (  3713 PWs)   bands (ev):

   -47.4034 -47.3396 -19.3936 -19.3929 -19.3928 -19.2237 -19.2231 -19.2230
   -11.8526   2.6752   2.7297   2.7306   4.5461  14.7974  14.9707  14.9730
    15.9347  15.9355  16.1855  16.7885  16.7895  20.3448  23.4358  24.1387
    24.2352  24.2366  32.0276  32.0319  32.2764  34.1521  34.1545  35.9594
    36.5595  36.5620  38.2995  41.6841  41.6861  42.4888  42.6267  42.6564

          k = 0.0000 0.0000 0.0000 (  3719 PWs)   bands (ev):

   -47.4037 -47.3394 -19.3940 -19.3935 -19.3934 -19.2224 -19.2223 -19.2222
   -11.8556   2.7291   2.7305   2.7314   4.4704  14.9815  14.9972  15.0000
    16.1231  16.1316  16.1328  16.5201  16.5224  20.2119  23.3642  24.1893
    24.2051  24.2064  32.2639  32.2686  32.2754  34.5122  34.5136  35.9010
    35.9041  35.9353  38.2602  41.7975  41.7998  42.6249  42.6520  42.6812

          k = 0.0356-0.0356 0.0356 (  3724 PWs)   bands (ev):

   -47.4031 -47.3399 -19.3929 -19.3924 -19.3920 -19.2256 -19.2241 -19.2240
   -11.8490   2.6162   2.7274   2.7288   4.6344  14.6129  14.9169  14.9318
    15.8147  15.8221  16.2457  16.9939  16.9986  20.5050  23.5250  24.0911
    24.2611  24.2737  31.7428  31.7519  32.2662  33.9431  33.9558  35.9615
    37.1260  37.1565  38.3479  41.5412  41.5458  42.3743  42.5786  42.5996

          k = 0.0712-0.0712 0.0712 (  3735 PWs)   bands (ev):

   -47.4012 -47.3417 -19.3903 -19.3881 -19.3877 -19.2352 -19.2295 -19.2293
   -11.8300   2.3618   2.7222   2.7235   5.0338  13.8169  14.6377  14.6485
    15.6984  15.7096  16.3653  17.6721  17.6785  21.2493  23.7804  24.0067
    24.4766  24.4879  30.3921  30.4131  32.2423  33.7683  33.7941  36.1243
    38.5945  39.0040  39.0365  40.7167  40.7263  41.6449  42.4751  42.4967

          k = 0.1067-0.1068 0.1067 (  3716 PWs)   bands (ev):

   -47.3981 -47.3446 -19.3863 -19.3808 -19.3805 -19.2497 -19.2381 -19.2379
   -11.8018   2.0836   2.7145   2.7157   5.5487  12.9017  14.2336  14.2421
    15.8503  15.8637  16.4309  18.3594  18.3680  22.0912  23.4892  24.7586
    24.8622  24.8709  28.8516  28.8752  32.1232  33.9302  33.9597  36.3952
    38.9353  39.2999  39.3123  40.6532  40.6868  40.7351  42.3592  42.3852

          k = 0.1423-0.1424 0.1423 (  3721 PWs)   bands (ev):

   -47.3939 -47.3484 -19.3810 -19.3709 -19.3706 -19.2675 -19.2495 -19.2493
   -11.7687   1.8342   2.7054   2.7065   6.1204  11.9736  13.8498  13.8577
    16.1267  16.1411  16.5062  19.0066  19.0180  22.1887  23.9441  25.4425
    25.4480  25.7804  27.3778  27.4017  31.8296  34.2507  34.2815  36.7736
    37.5158  37.5280  38.9676  39.9683  41.0187  41.0303  41.2153  41.2264

          k = 0.1779-0.1780 0.1779 (  3721 PWs)   bands (ev):

   -47.3889 -47.3531 -19.3742 -19.3587 -19.3584 -19.2866 -19.2633 -19.2632
   -11.7358   1.6339   2.6963   2.6973   6.7244  11.0770  13.5349  13.5425
    16.4536  16.4683  16.6304  19.5873  19.6016  21.6747  24.9911  25.8959
    25.9142  26.3962  26.4029  27.0490  31.3178  34.6802  34.7112  35.6300
    35.6414  37.2578  37.6607  39.8955  39.9259  40.1693  41.0680  41.0947

          k = 0.2135-0.2136 0.2135 (  3728 PWs)   bands (ev):

   -47.3832 -47.3586 -19.3662 -19.3446 -19.3443 -19.3050 -19.2788 -19.2787
   -11.7081   1.4897   2.6887   2.6895   7.3527  10.2310  13.3043  13.3120
    16.7674  16.7823  16.7999  20.0930  20.1099  21.1178  24.8495  24.8727
    26.0921  27.3340  27.3369  28.5214  30.6146  33.7734  33.7818  35.2146
    35.2471  35.8547  37.8429  38.8691  38.9003  40.5335  40.9108  40.9372

          k = 0.2491-0.2492 0.2491 (  3729 PWs)   bands (ev):

   -47.3771 -47.3645 -19.3575 -19.3290 -19.3287 -19.3207 -19.2953 -19.2952
   -11.6897   1.4032   2.6836   2.6844   8.0070   9.4425  13.1643  13.1720
    16.9631  16.9982  17.0131  20.4955  20.5143  20.6952  24.0232  24.0461
    27.1107  28.5131  28.5207  29.6906  30.2654  32.0944  32.0995  33.9815
    35.7639  35.7969  38.0150  38.0462  38.5063  40.4568  40.7419  40.7996

          k = 0.2846-0.2848 0.2846 (  3750 PWs)   bands (ev):

   -47.3708 -47.3708 -19.3522 -19.3284 -19.3143 -19.3139 -19.3105 -19.3104
   -11.6832   1.3745   2.6818   2.6826   8.6299   8.7741  13.1174  13.1251
    17.0340  17.0836  17.0985  20.5337  20.6699  20.6890  23.6968  23.7195
    27.6816  29.2523  29.3553  29.3688  31.0849  31.0860  31.5519  32.5404
    36.0827  36.1163  37.5951  37.6259  38.9963  39.8580  40.7603  40.7873

          k = 0.3321-0.2374 0.2372 (  3731 PWs)   bands (ev):

   -47.3735 -47.3680 -19.3760 -19.3551 -19.3432 -19.2953 -19.2818 -19.2792
   -11.6800   1.4190   2.6203   2.6676   8.4001   9.1179  12.8570  13.1666
    16.6740  17.1898  17.5273  20.3447  20.7624  20.9925  23.7204  23.7645
    27.5452  28.5258  29.2886  29.7523  30.9813  31.3915  32.0673  33.1112
    34.5719  36.1148  36.1659  37.1593  40.1077  40.3216  40.8737  40.9261

          k = 0.3795-0.1899 0.1897 (  3721 PWs)   bands (ev):

   -47.3761 -47.3654 -19.4132 -19.3842 -19.3725 -19.2648 -19.2540 -19.2449
   -11.6710   1.5352   2.4713   2.6287   8.1436   9.6788  12.3505  13.2890
    15.8210  17.5100  18.6408  19.5690  21.0158  21.8755  23.7842  23.9969
    27.2746  27.3173  29.1824  30.3597  31.0617  31.6948  31.9997  33.7058
    34.0256  34.3996  35.9932  36.3602  39.4996  40.6065  41.0736  41.3836

          k = 0.4270-0.1425 0.1422 (  3717 PWs)   bands (ev):

   -47.3782 -47.3631 -19.4490 -19.4066 -19.3980 -19.2374 -19.2306 -19.2162
   -11.6585   1.6588   2.3365   2.5772   7.8702  10.3510  11.9586  13.4362
    14.9392  18.0715  18.2873  20.3376  21.3991  22.6930  23.8903  24.4854
    26.2004  26.9634  29.0718  29.6998  30.2553  31.8026  32.4396  32.7573
    33.6975  35.4653  35.8576  36.4471  38.6903  40.4380  40.9059  41.5017

          k = 0.4744-0.0951 0.0948 (  3727 PWs)   bands (ev):

   -47.3798 -47.3613 -19.4782 -19.4224 -19.4179 -19.2161 -19.2128 -19.1949
   -11.6458   1.6836   2.3365   2.5272   7.5956  10.9262  11.9163  13.5615
    14.2100  17.1465  18.8642  21.8384  22.0131  23.2529  24.0202  25.0456
    25.2277  26.6582  27.6704  29.0995  30.3603  31.1151  31.8552  32.7984
    33.9986  34.3821  37.5310  37.7883  38.0740  40.1584  41.0656  41.3318

          k = 0.5219-0.0476 0.0473 (  3729 PWs)   bands (ev):

   -47.3808 -47.3602 -19.4972 -19.4316 -19.4306 -19.2027 -19.2018 -19.1817
   -11.6363   1.6294   2.4318   2.4915   7.3827  11.1151  12.3351  13.6404
    13.7671  16.1377  19.7628  22.1678  23.5638  23.7338  23.9388  24.7106
    25.3542  26.1288  26.2466  29.5285  30.2246  30.4131  30.6508  32.8541
    33.5438  35.0107  37.1987  38.4640  39.3629  40.5222  41.0371  42.1020

          k = 0.5693-0.0002-0.0002 (  3710 PWs)   bands (ev):

   -47.3812 -47.3598 -19.5038 -19.4348 -19.4346 -19.1981 -19.1980 -19.1772
   -11.6328   1.6001   2.4787   2.4812   7.3019  11.1377  12.5926  13.6666
    13.6743  15.6652  20.2702  22.2099  23.6881  23.6919  24.9130  24.9196
    25.3439  25.3460  25.6994  29.7409  29.9074  29.9295  30.9963  31.8921
    33.9887  35.3986  36.6892  38.6225  39.9229  40.7658  41.4215  43.0264

     the Fermi energy is     3.6583 ev
     (compare with:     3.6529 eV, computed in scf)

     Writing output data file ./out/Na_expansion01.save/

     init_run     :      1.64s CPU      1.69s WALL (       1 calls)
     electrons    :   3740.49s CPU   3846.26s WALL (       1 calls)

     Called by init_run:
     wfcinit      :      0.00s CPU      0.11s WALL (       1 calls)
     potinit      :      0.51s CPU      0.60s WALL (       1 calls)
     hinit0       :      0.56s CPU      0.44s WALL (       1 calls)

     Called by electrons:
     c_bands      :   3740.49s CPU   3846.26s WALL (       1 calls)
     v_of_rho     :      0.44s CPU      0.49s WALL (       1 calls)
     newd         :      0.55s CPU      0.54s WALL (       1 calls)

     Called by c_bands:
     init_us_2    :      0.13s CPU      0.18s WALL (      43 calls)
     cegterg      :   3527.18s CPU   3626.28s WALL (      86 calls)

     Called by *egterg:
     cdiaghg      :     12.04s CPU     12.63s WALL (    1375 calls)
     h_psi        :   3404.78s CPU   3487.82s WALL (    1461 calls)
     s_psi        :      0.37s CPU      0.26s WALL (    1461 calls)
     g_psi        :      4.39s CPU      3.68s WALL (    1332 calls)

     Called by h_psi:
     h_psi:calbec :     53.15s CPU     57.57s WALL (    1461 calls)
     vloc_psi     :   3346.50s CPU   3424.46s WALL (    1461 calls)
     add_vuspsi   :      0.13s CPU      0.48s WALL (    1461 calls)

     General routines
     calbec       :     53.06s CPU     57.55s WALL (    1461 calls)
     fft          :      0.60s CPU      0.63s WALL (      12 calls)
     fftw         :   3009.42s CPU   3110.50s WALL (   57414 calls)
     davcio       :      0.01s CPU      2.02s WALL (      86 calls)

     Parallel routines
     fft_scatt_xy :    189.61s CPU    181.12s WALL (   57426 calls)
     fft_scatt_yz :   1621.73s CPU   1797.39s WALL (   57426 calls)

     PWSCF        :      1h 2m CPU      1h 4m WALL


   This run was terminated on:  12:38:55  16Oct2024            

=------------------------------------------------------------------------------=
   JOB DONE.
=------------------------------------------------------------------------------=
