
     Program BANDS v.6.6 starts on  1Nov2024 at 23:17: 7 

     This program is part of the open-source Quantum ESPRESSO suite
     for quantum simulation of materials; please cite
         "P. Giannozzi et al., J. Phys.:Condens. Matter 21 395502 (2009);
         "P. Giannozzi et al., J. Phys.:Condens. Matter 29 465901 (2017);
          URL http://www.quantum-espresso.org", 
     in publications or presentations arising from this work. More details at
     http://www.quantum-espresso.org/quote

     Parallel version (MPI & OpenMP), running on       4 processor cores
     Number of MPI processes:                 4
     Threads/MPI process:                     1

     MPI processes distributed on     1 nodes
     R & G space division:  proc/nbgrp/npool/nimage =       4
     Fft bands division:     nmany     =       1

     Reading xml data from directory:

     ./out/1.save/
     file K.pbe-spn-kjpaw_psl.1.0.0.UPF: wavefunction(s)  3S renormalized
     file O.pbe-n-kjpaw_psl.1.0.0.UPF: wavefunction(s)  2S 2P renormalized

     IMPORTANT: XC functional enforced from input :
     Exchange-correlation= PBE
                           (   1   4   3   4   0   0   0)
     Any further DFT definition will be discarded
     Please, verify this is what you really want


     Parallelization info
     --------------------
     sticks:   dense  smooth     PW     G-vecs:    dense   smooth      PW
     Min         415     342     94                11183     8269    1238
     Max         417     343     95                11185     8271    1240
     Sum        1663    1369    379                44735    33079    4957


     Check: negative core charge=   -0.000002
     Reading collected, re-writing distributed wavefunctions
     high-symmetry point:  0.0000 0.0000 0.0000   x coordinate   0.0000
     high-symmetry point:  0.3536 0.3536-0.3536   x coordinate   0.6124
     high-symmetry point: -0.0000 0.7071-0.0000   x coordinate   1.2248
     high-symmetry point:  0.3536 0.3536 0.3536   x coordinate   1.8371
     high-symmetry point:  0.0000 0.0000 0.0000   x coordinate   2.4495
     high-symmetry point:  0.3536-0.3536 0.3536   x coordinate   3.0619
     high-symmetry point:  0.7071-0.0000-0.0000   x coordinate   3.6743

     Plottable bands (eV) written to file bands.dat.gnu
     Bands written to file bands.dat

 **************************************************************************

                    xk=(   0.00000,   0.00000,   0.00000  )

     point group D_3d (-3m) 
     there are  6 classes
     the character table:

       E     2C3   3C2'  i     2S6   3s_d 
A_1g   1.00  1.00  1.00  1.00  1.00  1.00
A_2g   1.00  1.00 -1.00  1.00  1.00 -1.00
E_g    2.00 -1.00  0.00  2.00 -1.00  0.00
A_1u   1.00  1.00  1.00 -1.00 -1.00 -1.00
A_2u   1.00  1.00 -1.00 -1.00 -1.00  1.00
E_u    2.00 -1.00  0.00 -2.00  1.00  0.00

     the symmetry operations in each class and the name of the first element:

     E        1
                                                                 
     2C3      5    6
                                                                 
     3C2'     2    4    3
                                                                 
     i        7
                                                                 
     2S6     11   12
                                                                 
     3s_d     8   10    9
                                                                 

     Band symmetry, D_3d (-3m)  point group:

     e(  1 -  1) =    -24.83854  eV     1   --> A_1g L_1       
     e(  2 -  2) =    -24.49631  eV     1   --> A_2u L_2'      
     e(  3 -  3) =     -9.46498  eV     1   --> A_1g L_1       
     e(  4 -  4) =     -8.48462  eV     1   --> A_1g L_1       
     e(  5 -  6) =     -8.48452  eV     2   --> E_g  L_3       
     e(  7 -  9) =     -7.85067  eV     3   --> A_2u L_2'      
     e(  7 -  9) =     -7.85067  eV     3   --> E_u  L_3'      
     e( 10 - 12) =      4.42954  eV     3   --> A_2u L_2'      
     e( 10 - 12) =      4.42954  eV     3   --> E_u  L_3'      
     e( 13 - 13) =      6.61555  eV     1   --> A_1g L_1       
     e( 14 - 15) =     10.31271  eV     2   --> E_g  L_3       
     e( 16 - 16) =     11.70002  eV     1   --> A_2u L_2'      
     e( 17 - 18) =     11.70039  eV     2   --> E_u  L_3'      
     e( 19 - 21) =     15.85380  eV     3   --> A_1g L_1       
     e( 19 - 21) =     15.85380  eV     3   --> E_g  L_3       
     e( 22 - 23) =     17.41051  eV     2   --> E_u  L_3'      
     e( 24 - 24) =     17.49643  eV     1   --> A_1g L_1       
     e( 25 - 26) =     17.49681  eV     2   --> E_g  L_3       
     e( 27 - 27) =     18.22839  eV     1   --> A_1g L_1       
     e( 28 - 30) =     21.19765  eV     3   --> A_2u L_2'      
     e( 28 - 30) =     21.19765  eV     3   --> E_u  L_3'      
     e( 31 - 32) =     23.86380  eV     2   --> E_g  L_3       
     e( 33 - 33) =     25.33768  eV     1   --> A_2u L_2'      
     e( 34 - 35) =     25.33843  eV     2   --> E_u  L_3'      
     e( 36 - 36) =     26.01187  eV     1   --> A_2u L_2'      
     e( 37 - 38) =     28.31330  eV     2   --> E_u  L_3'      
     e( 39 - 39) =     28.31397  eV     1   --> A_1u L_1'      
     e( 40 - 40) =     31.56907  eV     1   --> A_1g L_1       

 **************************************************************************

 **************************************************************************

                    xk=(   0.04419,   0.04419,  -0.04420  )

     point group C_s (m)    
     there are  2 classes
     the character table:

       E     s    
A'     1.00  1.00
A''    1.00 -1.00

     the symmetry operations in each class and the name of the first element:

     E        1
                                                                 
     s        2
                                                                 

     Band symmetry, C_s (m)     point group:

     e(  1 -  1) =    -24.83504  eV     1   --> A'             
     e(  2 -  2) =    -24.49946  eV     1   --> A'             
     e(  3 -  3) =     -9.47965  eV     1   --> A'             
     e(  4 -  4) =     -8.48224  eV     1   --> A'             
     e(  5 -  6) =     -8.47976  eV     2   --> A'             
     e(  5 -  6) =     -8.47976  eV     2   --> A''            
     e(  7 -  8) =     -7.85809  eV     2   --> A'             
     e(  7 -  8) =     -7.85809  eV     2   --> A''            
     e(  9 -  9) =     -7.84189  eV     1   --> A'             
     e( 10 - 10) =      4.40491  eV     1   --> A'             
     e( 11 - 12) =      4.43920  eV     2   --> A'             
     e( 11 - 12) =      4.43920  eV     2   --> A''            
     e( 13 - 13) =      6.72072  eV     1   --> A'             
     e( 14 - 15) =     10.33430  eV     2   --> A'             
     e( 14 - 15) =     10.33430  eV     2   --> A''            
     e( 16 - 16) =     11.62927  eV     1   --> A'             
     e( 17 - 17) =     11.73554  eV     1   --> A'             
     e( 18 - 18) =     11.73588  eV     1   --> A''            
     e( 19 - 20) =     15.81419  eV     2   --> A'             
     e( 19 - 20) =     15.81419  eV     2   --> A''            
     e( 21 - 21) =     15.83792  eV     1   --> A'             
     e( 22 - 22) =     16.79637  eV     1   --> A'             
     e( 23 - 23) =     16.79647  eV     1   --> A''            
     e( 24 - 24) =     17.28808  eV     1   --> A'             
     e( 25 - 25) =     18.10495  eV     1   --> A'             
     e( 26 - 26) =     18.10521  eV     1   --> A''            
     e( 27 - 27) =     18.30650  eV     1   --> A'             
     e( 28 - 29) =     21.18397  eV     2   --> A'             
     e( 28 - 29) =     21.18397  eV     2   --> A''            
     e( 30 - 30) =     21.31807  eV     1   --> A'             
     e( 31 - 32) =     23.81585  eV     2   --> A'             
     e( 31 - 32) =     23.81585  eV     2   --> A''            
     e( 33 - 33) =     25.29729  eV     1   --> A'             
     e( 34 - 34) =     25.31884  eV     1   --> A'             
     e( 35 - 35) =     25.31950  eV     1   --> A''            
     e( 36 - 36) =     26.17468  eV     1   --> A'             
     e( 37 - 37) =     28.35503  eV     1   --> A''            
     e( 38 - 38) =     28.44492  eV     1   --> A'             
     e( 39 - 39) =     28.44551  eV     1   --> A''            
     e( 40 - 40) =     31.67536  eV     1   --> A'             

 **************************************************************************

 **************************************************************************

                    xk=(   0.08839,   0.08839,  -0.08839  )

     Band symmetry, C_s (m)     point group:

     e(  1 -  1) =    -24.82473  eV     1   --> A'             
     e(  2 -  2) =    -24.50869  eV     1   --> A'             
     e(  3 -  3) =     -9.52126  eV     1   --> A'             
     e(  4 -  4) =     -8.47245  eV     1   --> A'             
     e(  5 -  6) =     -8.46526  eV     2   --> A'             
     e(  5 -  6) =     -8.46526  eV     2   --> A''            
     e(  7 -  8) =     -7.87993  eV     2   --> A'             
     e(  7 -  8) =     -7.87993  eV     2   --> A''            
     e(  9 -  9) =     -7.82056  eV     1   --> A'             
     e( 10 - 10) =      4.35287  eV     1   --> A'             
     e( 11 - 12) =      4.46690  eV     2   --> A'             
     e( 11 - 12) =      4.46690  eV     2   --> A''            
     e( 13 - 13) =      7.00503  eV     1   --> A'             
     e( 14 - 15) =     10.40003  eV     2   --> A'             
     e( 14 - 15) =     10.40003  eV     2   --> A''            
     e( 16 - 16) =     11.44713  eV     1   --> A'             
     e( 17 - 17) =     11.83847  eV     1   --> A'             
     e( 18 - 18) =     11.83887  eV     1   --> A''            
     e( 19 - 20) =     15.69609  eV     2   --> A'             
     e( 19 - 20) =     15.69609  eV     2   --> A''            
     e( 21 - 21) =     15.75576  eV     1   --> A'             
     e( 22 - 22) =     16.15248  eV     1   --> A'             
     e( 23 - 23) =     16.15259  eV     1   --> A''            
     e( 24 - 24) =     16.77459  eV     1   --> A'             
     e( 25 - 25) =     18.52776  eV     1   --> A'             
     e( 26 - 26) =     18.72110  eV     1   --> A'             
     e( 27 - 27) =     18.72148  eV     1   --> A''            
     e( 28 - 29) =     21.15515  eV     2   --> A'             
     e( 28 - 29) =     21.15515  eV     2   --> A''            
     e( 30 - 30) =     21.61553  eV     1   --> A'             
     e( 31 - 32) =     23.73232  eV     2   --> A'             
     e( 31 - 32) =     23.73232  eV     2   --> A''            
     e( 33 - 33) =     25.13502  eV     1   --> A'             
     e( 34 - 34) =     25.24486  eV     1   --> A'             
     e( 35 - 35) =     25.24549  eV     1   --> A''            
     e( 36 - 36) =     26.69509  eV     1   --> A'             
     e( 37 - 37) =     28.47997  eV     1   --> A''            
     e( 38 - 38) =     28.77313  eV     1   --> A'             
     e( 39 - 39) =     28.77374  eV     1   --> A''            
     e( 40 - 40) =     31.92230  eV     1   --> A'             

 **************************************************************************

 **************************************************************************

                    xk=(   0.13258,   0.13258,  -0.13259  )

     Band symmetry, C_s (m)     point group:

     e(  1 -  1) =    -24.80809  eV     1   --> A'             
     e(  2 -  2) =    -24.52373  eV     1   --> A'             
     e(  3 -  3) =     -9.58277  eV     1   --> A'             
     e(  4 -  4) =     -8.45038  eV     1   --> A'             
     e(  5 -  6) =     -8.44129  eV     2   --> A'             
     e(  5 -  6) =     -8.44129  eV     2   --> A''            
     e(  7 -  8) =     -7.91485  eV     2   --> A'             
     e(  7 -  8) =     -7.91485  eV     2   --> A''            
     e(  9 -  9) =     -7.79731  eV     1   --> A'             
     e( 10 - 10) =      4.31099  eV     1   --> A'             
     e( 11 - 12) =      4.50867  eV     2   --> A'             
     e( 11 - 12) =      4.50867  eV     2   --> A''            
     e( 13 - 13) =      7.40142  eV     1   --> A'             
     e( 14 - 14) =     10.51171  eV     1   --> A''            
     e( 15 - 15) =     10.51188  eV     1   --> A'             
     e( 16 - 16) =     11.22424  eV     1   --> A'             
     e( 17 - 17) =     11.99921  eV     1   --> A'             
     e( 18 - 18) =     11.99968  eV     1   --> A''            
     e( 19 - 19) =     15.48966  eV     1   --> A''            
     e( 20 - 20) =     15.49018  eV     1   --> A'             
     e( 21 - 21) =     15.49087  eV     1   --> A'             
     e( 22 - 22) =     15.54488  eV     1   --> A'             
     e( 23 - 23) =     15.54579  eV     1   --> A''            
     e( 24 - 24) =     16.23073  eV     1   --> A'             
     e( 25 - 25) =     18.80893  eV     1   --> A'             
     e( 26 - 26) =     19.25684  eV     1   --> A'             
     e( 27 - 27) =     19.25738  eV     1   --> A''            
     e( 28 - 28) =     21.15428  eV     1   --> A''            
     e( 29 - 29) =     21.15454  eV     1   --> A'             
     e( 30 - 30) =     22.04351  eV     1   --> A'             
     e( 31 - 31) =     23.71565  eV     1   --> A''            
     e( 32 - 32) =     23.71576  eV     1   --> A'             
     e( 33 - 33) =     24.85955  eV     1   --> A'             
     e( 34 - 34) =     25.10186  eV     1   --> A'             
     e( 35 - 35) =     25.10237  eV     1   --> A''            
     e( 36 - 36) =     27.52433  eV     1   --> A'             
     e( 37 - 37) =     28.68816  eV     1   --> A''            
     e( 38 - 38) =     29.13403  eV     1   --> A'             
     e( 39 - 39) =     29.13468  eV     1   --> A''            
     e( 40 - 40) =     31.84845  eV     1   --> A'             

 **************************************************************************

 **************************************************************************

                    xk=(   0.17678,   0.17678,  -0.17678  )

     Band symmetry, C_s (m)     point group:

     e(  1 -  1) =    -24.78584  eV     1   --> A'             
     e(  2 -  2) =    -24.54408  eV     1   --> A'             
     e(  3 -  3) =     -9.65366  eV     1   --> A'             
     e(  4 -  4) =     -8.41500  eV     1   --> A'             
     e(  5 -  6) =     -8.40821  eV     2   --> A'             
     e(  5 -  6) =     -8.40821  eV     2   --> A''            
     e(  7 -  8) =     -7.96082  eV     2   --> A'             
     e(  7 -  8) =     -7.96082  eV     2   --> A''            
     e(  9 -  9) =     -7.78158  eV     1   --> A'             
     e( 10 - 10) =      4.29998  eV     1   --> A'             
     e( 11 - 12) =      4.55844  eV     2   --> A'             
     e( 11 - 12) =      4.55844  eV     2   --> A''            
     e( 13 - 13) =      7.83861  eV     1   --> A'             
     e( 14 - 14) =     10.66892  eV     1   --> A''            
     e( 15 - 15) =     10.66919  eV     1   --> A'             
     e( 16 - 16) =     11.03146  eV     1   --> A'             
     e( 17 - 17) =     12.20384  eV     1   --> A'             
     e( 18 - 18) =     12.20438  eV     1   --> A''            
     e( 19 - 19) =     14.93407  eV     1   --> A''            
     e( 20 - 20) =     14.93426  eV     1   --> A'             
     e( 21 - 21) =     14.96669  eV     1   --> A'             
     e( 22 - 22) =     15.26072  eV     1   --> A'             
     e( 23 - 23) =     15.26114  eV     1   --> A''            
     e( 24 - 24) =     15.85133  eV     1   --> A'             
     e( 25 - 25) =     19.06569  eV     1   --> A'             
     e( 26 - 26) =     19.64362  eV     1   --> A'             
     e( 27 - 27) =     19.64434  eV     1   --> A''            
     e( 28 - 28) =     21.25191  eV     1   --> A''            
     e( 29 - 29) =     21.25240  eV     1   --> A'             
     e( 30 - 30) =     22.63210  eV     1   --> A'             
     e( 31 - 32) =     23.82350  eV     2   --> A'             
     e( 31 - 32) =     23.82350  eV     2   --> A''            
     e( 33 - 33) =     24.51752  eV     1   --> A'             
     e( 34 - 34) =     24.90262  eV     1   --> A'             
     e( 35 - 35) =     24.90296  eV     1   --> A''            
     e( 36 - 36) =     28.51290  eV     1   --> A'             
     e( 37 - 37) =     28.97951  eV     1   --> A''            
     e( 38 - 38) =     29.34501  eV     1   --> A'             
     e( 39 - 39) =     29.34563  eV     1   --> A''            
     e( 40 - 40) =     31.05131  eV     1   --> A'             

 **************************************************************************

 **************************************************************************

                    xk=(   0.22097,   0.22097,  -0.22098  )

     Band symmetry, C_s (m)     point group:

     e(  1 -  1) =    -24.75897  eV     1   --> A'             
     e(  2 -  2) =    -24.56906  eV     1   --> A'             
     e(  3 -  3) =     -9.72246  eV     1   --> A'             
     e(  4 -  4) =     -8.37056  eV     1   --> A'             
     e(  5 -  6) =     -8.36661  eV     2   --> A'             
     e(  5 -  6) =     -8.36661  eV     2   --> A''            
     e(  7 -  8) =     -8.01528  eV     2   --> A'             
     e(  7 -  8) =     -8.01528  eV     2   --> A''            
     e(  9 -  9) =     -7.77770  eV     1   --> A'             
     e( 10 - 10) =      4.31938  eV     1   --> A'             
     e( 11 - 12) =      4.60873  eV     2   --> A'             
     e( 11 - 12) =      4.60873  eV     2   --> A''            
     e( 13 - 13) =      8.24875  eV     1   --> A'             
     e( 14 - 14) =     10.86457  eV     1   --> A''            
     e( 15 - 15) =     10.86494  eV     1   --> A'             
     e( 16 - 16) =     10.91405  eV     1   --> A'             
     e( 17 - 17) =     12.43522  eV     1   --> A'             
     e( 18 - 18) =     12.43583  eV     1   --> A''            
     e( 19 - 20) =     14.38900  eV     2   --> A'             
     e( 19 - 20) =     14.38900  eV     2   --> A''            
     e( 21 - 21) =     14.40401  eV     1   --> A'             
     e( 22 - 22) =     14.97775  eV     1   --> A'             
     e( 23 - 23) =     14.97812  eV     1   --> A''            
     e( 24 - 24) =     15.51434  eV     1   --> A'             
     e( 25 - 25) =     19.27560  eV     1   --> A'             
     e( 26 - 26) =     19.84834  eV     1   --> A'             
     e( 27 - 27) =     19.84915  eV     1   --> A''            
     e( 28 - 28) =     21.47716  eV     1   --> A''            
     e( 29 - 29) =     21.47782  eV     1   --> A'             
     e( 30 - 30) =     23.36106  eV     1   --> A'             
     e( 31 - 31) =     24.06062  eV     1   --> A'             
     e( 32 - 32) =     24.06074  eV     1   --> A''            
     e( 33 - 33) =     24.18443  eV     1   --> A'             
     e( 34 - 34) =     24.67370  eV     1   --> A'             
     e( 35 - 35) =     24.67383  eV     1   --> A''            
     e( 36 - 36) =     29.10731  eV     1   --> A'             
     e( 37 - 37) =     29.29068  eV     1   --> A'             
     e( 38 - 38) =     29.29101  eV     1   --> A''            
     e( 39 - 39) =     29.35386  eV     1   --> A''            
     e( 40 - 40) =     30.61542  eV     1   --> A'             

 **************************************************************************

 **************************************************************************

                    xk=(   0.26517,   0.26517,  -0.26517  )

     Band symmetry, C_s (m)     point group:

     e(  1 -  1) =    -24.72860  eV     1   --> A'             
     e(  2 -  2) =    -24.59782  eV     1   --> A'             
     e(  3 -  3) =     -9.77908  eV     1   --> A'             
     e(  4 -  4) =     -8.32543  eV     1   --> A'             
     e(  5 -  6) =     -8.31742  eV     2   --> A'             
     e(  5 -  6) =     -8.31742  eV     2   --> A''            
     e(  7 -  8) =     -8.07535  eV     2   --> A'             
     e(  7 -  8) =     -8.07535  eV     2   --> A''            
     e(  9 -  9) =     -7.78407  eV     1   --> A'             
     e( 10 - 10) =      4.35461  eV     1   --> A'             
     e( 11 - 11) =      4.65178  eV     1   --> A'             
     e( 12 - 12) =      4.65188  eV     1   --> A''            
     e( 13 - 13) =      8.57479  eV     1   --> A'             
     e( 14 - 14) =     10.87208  eV     1   --> A'             
     e( 15 - 15) =     11.07771  eV     1   --> A''            
     e( 16 - 16) =     11.07818  eV     1   --> A'             
     e( 17 - 17) =     12.67151  eV     1   --> A'             
     e( 18 - 18) =     12.67209  eV     1   --> A''            
     e( 19 - 19) =     13.91237  eV     1   --> A'             
     e( 20 - 20) =     13.91251  eV     1   --> A''            
     e( 21 - 21) =     13.99201  eV     1   --> A'             
     e( 22 - 22) =     14.69989  eV     1   --> A'             
     e( 23 - 23) =     14.70020  eV     1   --> A''            
     e( 24 - 24) =     15.14905  eV     1   --> A'             
     e( 25 - 25) =     19.44927  eV     1   --> A'             
     e( 26 - 26) =     19.92800  eV     1   --> A'             
     e( 27 - 27) =     19.92880  eV     1   --> A''            
     e( 28 - 28) =     21.75390  eV     1   --> A''            
     e( 29 - 29) =     21.75465  eV     1   --> A'             
     e( 30 - 30) =     23.65930  eV     1   --> A'             
     e( 31 - 31) =     24.38164  eV     1   --> A'             
     e( 32 - 32) =     24.38194  eV     1   --> A''            
     e( 33 - 33) =     24.44354  eV     1   --> A'             
     e( 34 - 35) =     24.45271  eV     2   --> A'             
     e( 34 - 35) =     24.45271  eV     2   --> A''            
     e( 36 - 36) =     28.44195  eV     1   --> A'             
     e( 37 - 37) =     28.98649  eV     1   --> A''            
     e( 38 - 38) =     28.98672  eV     1   --> A'             
     e( 39 - 39) =     29.81085  eV     1   --> A''            
     e( 40 - 40) =     31.16446  eV     1   --> A'             

 **************************************************************************

 **************************************************************************

                    xk=(   0.30936,   0.30936,  -0.30937  )

     Band symmetry, C_s (m)     point group:

     e(  1 -  1) =    -24.69600  eV     1   --> A'             
     e(  2 -  2) =    -24.62933  eV     1   --> A'             
     e(  3 -  3) =     -9.81605  eV     1   --> A'             
     e(  4 -  4) =     -8.29074  eV     1   --> A'             
     e(  5 -  6) =     -8.26202  eV     2   --> A'             
     e(  5 -  6) =     -8.26202  eV     2   --> A''            
     e(  7 -  8) =     -8.13801  eV     2   --> A'             
     e(  7 -  8) =     -8.13801  eV     2   --> A''            
     e(  9 -  9) =     -7.79398  eV     1   --> A'             
     e( 10 - 10) =      4.38642  eV     1   --> A'             
     e( 11 - 11) =      4.68077  eV     1   --> A'             
     e( 12 - 12) =      4.68089  eV     1   --> A''            
     e( 13 - 13) =      8.78218  eV     1   --> A'             
     e( 14 - 14) =     10.86420  eV     1   --> A'             
     e( 15 - 15) =     11.26131  eV     1   --> A''            
     e( 16 - 16) =     11.26186  eV     1   --> A'             
     e( 17 - 17) =     12.87954  eV     1   --> A'             
     e( 18 - 18) =     12.87986  eV     1   --> A''            
     e( 19 - 19) =     13.54839  eV     1   --> A'             
     e( 20 - 20) =     13.54900  eV     1   --> A''            
     e( 21 - 21) =     13.80412  eV     1   --> A'             
     e( 22 - 22) =     14.48091  eV     1   --> A'             
     e( 23 - 23) =     14.48112  eV     1   --> A''            
     e( 24 - 24) =     14.81401  eV     1   --> A'             
     e( 25 - 25) =     19.57738  eV     1   --> A'             
     e( 26 - 26) =     19.95383  eV     1   --> A'             
     e( 27 - 27) =     19.95461  eV     1   --> A''            
     e( 28 - 28) =     21.97548  eV     1   --> A''            
     e( 29 - 29) =     21.97626  eV     1   --> A'             
     e( 30 - 30) =     23.45139  eV     1   --> A'             
     e( 31 - 31) =     24.27309  eV     1   --> A''            
     e( 32 - 32) =     24.27332  eV     1   --> A'             
     e( 33 - 33) =     24.69740  eV     1   --> A'             
     e( 34 - 34) =     24.69805  eV     1   --> A''            
     e( 35 - 35) =     25.37912  eV     1   --> A'             
     e( 36 - 36) =     27.45692  eV     1   --> A'             
     e( 37 - 37) =     28.61211  eV     1   --> A''            
     e( 38 - 38) =     28.61288  eV     1   --> A'             
     e( 39 - 39) =     30.34912  eV     1   --> A''            
     e( 40 - 40) =     30.80015  eV     1   --> A'             

 **************************************************************************

 **************************************************************************

                    xk=(   0.35356,   0.35356,  -0.35356  )

     point group C_2h (2/m) 
     there are  4 classes
     the character table:

       E     C2    i     s_h  
A_g    1.00  1.00  1.00  1.00
B_g    1.00 -1.00  1.00 -1.00
A_u    1.00  1.00 -1.00 -1.00
B_u    1.00 -1.00 -1.00  1.00

     the symmetry operations in each class and the name of the first element:

     E        1
                                                                 
     C2       2
                                                                 
     i        3
                                                                 
     s_h      4
                                                                 

     Band symmetry, C_2h (2/m)  point group:

     e(  1 -  1) =    -24.66283  eV     1   --> A_g            
     e(  2 -  2) =    -24.66212  eV     1   --> B_u            
     e(  3 -  3) =     -9.82886  eV     1   --> A_g            
     e(  4 -  4) =     -8.27750  eV     1   --> B_u            
     e(  5 -  5) =     -8.20895  eV     1   --> A_u            
     e(  6 -  6) =     -8.20871  eV     1   --> B_u            
     e(  7 -  7) =     -8.19387  eV     1   --> A_g            
     e(  8 -  8) =     -8.19351  eV     1   --> B_g            
     e(  9 -  9) =     -7.79872  eV     1   --> A_g            
     e( 10 - 10) =      4.39902  eV     1   --> B_u            
     e( 11 - 11) =      4.69099  eV     1   --> B_u            
     e( 12 - 12) =      4.69111  eV     1   --> A_u            
     e( 13 - 13) =      8.85370  eV     1   --> B_u            
     e( 14 - 14) =     10.86155  eV     1   --> A_g            
     e( 15 - 15) =     11.33844  eV     1   --> B_g            
     e( 16 - 16) =     11.33902  eV     1   --> A_g            
     e( 17 - 17) =     12.98346  eV     1   --> A_u            
     e( 18 - 18) =     12.98360  eV     1   --> B_u            
     e( 19 - 19) =     13.38944  eV     1   --> A_g            
     e( 20 - 20) =     13.39062  eV     1   --> B_g            
     e( 21 - 21) =     13.77438  eV     1   --> A_g            
     e( 22 - 22) =     14.39343  eV     1   --> B_u            
     e( 23 - 23) =     14.39358  eV     1   --> A_u            
     e( 24 - 24) =     14.66208  eV     1   --> B_u            
     e( 25 - 25) =     19.62665  eV     1   --> B_u            
     e( 26 - 26) =     19.95968  eV     1   --> A_g            
     e( 27 - 27) =     19.96045  eV     1   --> B_g            
     e( 28 - 28) =     22.06086  eV     1   --> A_u            
     e( 29 - 29) =     22.06165  eV     1   --> B_u            
     e( 30 - 30) =     23.36137  eV     1   --> A_g            
     e( 31 - 31) =     24.20518  eV     1   --> B_g            
     e( 32 - 32) =     24.20546  eV     1   --> A_g            
     e( 33 - 33) =     24.83335  eV     1   --> B_u            
     e( 34 - 34) =     24.83414  eV     1   --> A_u            
     e( 35 - 35) =     26.24427  eV     1   --> A_g            
     e( 36 - 36) =     26.58245  eV     1   --> B_u            
     e( 37 - 37) =     28.43989  eV     1   --> B_g            
     e( 38 - 38) =     28.44088  eV     1   --> A_g            
     e( 39 - 39) =     30.68718  eV     1   --> B_u            
     e( 40 - 40) =     30.68923  eV     1   --> A_u            

 **************************************************************************

 **************************************************************************

                    xk=(   0.26517,   0.44195,  -0.26517  )

     point group C_1 (1)    
     there are  1 classes
     the character table:

       E    
A      1.00

     the symmetry operations in each class and the name of the first element:

     E        1
                                                                 

     Band symmetry, C_1 (1)     point group:

     e(  1 -  1) =    -24.68367  eV     1   --> A              
     e(  2 -  2) =    -24.64014  eV     1   --> A              
     e(  3 -  3) =     -9.86293  eV     1   --> A              
     e(  4 -  4) =     -8.43759  eV     1   --> A              
     e(  5 -  5) =     -8.37659  eV     1   --> A              
     e(  6 -  6) =     -8.17193  eV     1   --> A              
     e(  7 -  7) =     -8.02684  eV     1   --> A              
     e(  8 -  8) =     -8.00858  eV     1   --> A              
     e(  9 -  9) =     -7.81697  eV     1   --> A              
     e( 10 - 10) =      4.41794  eV     1   --> A              
     e( 11 - 11) =      4.66259  eV     1   --> A              
     e( 12 - 12) =      4.71825  eV     1   --> A              
     e( 13 - 13) =      8.69651  eV     1   --> A              
     e( 14 - 14) =     10.82478  eV     1   --> A              
     e( 15 - 15) =     11.41901  eV     1   --> A              
     e( 16 - 16) =     11.42713  eV     1   --> A              
     e( 17 - 17) =     12.55196  eV     1   --> A              
     e( 18 - 18) =     12.77158  eV     1   --> A              
     e( 19 - 19) =     13.37776  eV     1   --> A              
     e( 20 - 20) =     13.94020  eV     1   --> A              
     e( 21 - 21) =     13.99326  eV     1   --> A              
     e( 22 - 22) =     14.40754  eV     1   --> A              
     e( 23 - 23) =     14.60120  eV     1   --> A              
     e( 24 - 24) =     14.98714  eV     1   --> A              
     e( 25 - 25) =     19.01072  eV     1   --> A              
     e( 26 - 26) =     19.43753  eV     1   --> A              
     e( 27 - 27) =     20.30056  eV     1   --> A              
     e( 28 - 28) =     21.91849  eV     1   --> A              
     e( 29 - 29) =     21.94815  eV     1   --> A              
     e( 30 - 30) =     22.84368  eV     1   --> A              
     e( 31 - 31) =     23.48912  eV     1   --> A              
     e( 32 - 32) =     23.95761  eV     1   --> A              
     e( 33 - 33) =     25.36034  eV     1   --> A              
     e( 34 - 34) =     25.91394  eV     1   --> A              
     e( 35 - 35) =     26.19913  eV     1   --> A              
     e( 36 - 36) =     27.27504  eV     1   --> A              
     e( 37 - 37) =     28.49906  eV     1   --> A              
     e( 38 - 38) =     28.79323  eV     1   --> A              
     e( 39 - 39) =     29.88740  eV     1   --> A              
     e( 40 - 40) =     30.24466  eV     1   --> A              

 **************************************************************************

 **************************************************************************

                    xk=(   0.17678,   0.53033,  -0.17678  )

     Band symmetry, C_1 (1)     point group:

     e(  1 -  1) =    -24.70060  eV     1   --> A              
     e(  2 -  2) =    -24.62047  eV     1   --> A              
     e(  3 -  3) =     -9.94019  eV     1   --> A              
     e(  4 -  4) =     -8.58010  eV     1   --> A              
     e(  5 -  5) =     -8.52554  eV     1   --> A              
     e(  6 -  6) =     -8.09135  eV     1   --> A              
     e(  7 -  7) =     -7.88001  eV     1   --> A              
     e(  8 -  8) =     -7.85074  eV     1   --> A              
     e(  9 -  9) =     -7.81221  eV     1   --> A              
     e( 10 - 10) =      4.34172  eV     1   --> A              
     e( 11 - 11) =      4.71596  eV     1   --> A              
     e( 12 - 12) =      4.78376  eV     1   --> A              
     e( 13 - 13) =      8.45035  eV     1   --> A              
     e( 14 - 14) =     10.66733  eV     1   --> A              
     e( 15 - 15) =     11.40814  eV     1   --> A              
     e( 16 - 16) =     11.48805  eV     1   --> A              
     e( 17 - 17) =     12.43799  eV     1   --> A              
     e( 18 - 18) =     12.75878  eV     1   --> A              
     e( 19 - 19) =     13.14130  eV     1   --> A              
     e( 20 - 20) =     14.24212  eV     1   --> A              
     e( 21 - 21) =     14.35461  eV     1   --> A              
     e( 22 - 22) =     14.95443  eV     1   --> A              
     e( 23 - 23) =     15.09717  eV     1   --> A              
     e( 24 - 24) =     15.56705  eV     1   --> A              
     e( 25 - 25) =     18.39827  eV     1   --> A              
     e( 26 - 26) =     18.50368  eV     1   --> A              
     e( 27 - 27) =     20.22452  eV     1   --> A              
     e( 28 - 28) =     20.73217  eV     1   --> A              
     e( 29 - 29) =     21.61685  eV     1   --> A              
     e( 30 - 30) =     22.67922  eV     1   --> A              
     e( 31 - 31) =     23.44600  eV     1   --> A              
     e( 32 - 32) =     23.86455  eV     1   --> A              
     e( 33 - 33) =     25.23091  eV     1   --> A              
     e( 34 - 34) =     26.26613  eV     1   --> A              
     e( 35 - 35) =     26.95153  eV     1   --> A              
     e( 36 - 36) =     28.42534  eV     1   --> A              
     e( 37 - 37) =     28.74598  eV     1   --> A              
     e( 38 - 38) =     29.33372  eV     1   --> A              
     e( 39 - 39) =     29.45810  eV     1   --> A              
     e( 40 - 40) =     30.22003  eV     1   --> A              

 **************************************************************************

 **************************************************************************

                    xk=(   0.08838,   0.61872,  -0.08840  )

     Band symmetry, C_1 (1)     point group:

     e(  1 -  1) =    -24.71133  eV     1   --> A              
     e(  2 -  2) =    -24.60701  eV     1   --> A              
     e(  3 -  3) =    -10.01265  eV     1   --> A              
     e(  4 -  4) =     -8.64641  eV     1   --> A              
     e(  5 -  5) =     -8.62530  eV     1   --> A              
     e(  6 -  6) =     -8.10153  eV     1   --> A              
     e(  7 -  7) =     -7.78717  eV     1   --> A              
     e(  8 -  8) =     -7.78235  eV     1   --> A              
     e(  9 -  9) =     -7.70302  eV     1   --> A              
     e( 10 - 10) =      4.21201  eV     1   --> A              
     e( 11 - 11) =      4.82761  eV     1   --> A              
     e( 12 - 12) =      4.84890  eV     1   --> A              
     e( 13 - 13) =      8.22502  eV     1   --> A              
     e( 14 - 14) =     10.80590  eV     1   --> A              
     e( 15 - 15) =     11.15942  eV     1   --> A              
     e( 16 - 16) =     11.36118  eV     1   --> A              
     e( 17 - 17) =     12.65469  eV     1   --> A              
     e( 18 - 18) =     12.85662  eV     1   --> A              
     e( 19 - 19) =     13.24689  eV     1   --> A              
     e( 20 - 20) =     14.10953  eV     1   --> A              
     e( 21 - 21) =     14.21258  eV     1   --> A              
     e( 22 - 22) =     15.73584  eV     1   --> A              
     e( 23 - 23) =     15.80167  eV     1   --> A              
     e( 24 - 24) =     15.99091  eV     1   --> A              
     e( 25 - 25) =     17.68049  eV     1   --> A              
     e( 26 - 26) =     18.12629  eV     1   --> A              
     e( 27 - 27) =     19.50698  eV     1   --> A              
     e( 28 - 28) =     20.29255  eV     1   --> A              
     e( 29 - 29) =     21.14394  eV     1   --> A              
     e( 30 - 30) =     23.13853  eV     1   --> A              
     e( 31 - 31) =     23.48515  eV     1   --> A              
     e( 32 - 32) =     23.87003  eV     1   --> A              
     e( 33 - 33) =     24.72866  eV     1   --> A              
     e( 34 - 34) =     25.76557  eV     1   --> A              
     e( 35 - 35) =     26.91770  eV     1   --> A              
     e( 36 - 36) =     28.99814  eV     1   --> A              
     e( 37 - 37) =     29.35664  eV     1   --> A              
     e( 38 - 38) =     29.48361  eV     1   --> A              
     e( 39 - 39) =     29.80314  eV     1   --> A              
     e( 40 - 40) =     30.46374  eV     1   --> A              

 **************************************************************************

 **************************************************************************

                    xk=(  -0.00001,   0.70711,  -0.00001  )

     point group C_2h (2/m) 
     there are  4 classes
     the character table:

       E     C2    i     s_h  
A_g    1.00  1.00  1.00  1.00
B_g    1.00 -1.00  1.00 -1.00
A_u    1.00  1.00 -1.00 -1.00
B_u    1.00 -1.00 -1.00  1.00

     the symmetry operations in each class and the name of the first element:

     E        1
                                                                 
     C2       2
                                                                 
     i        3
                                                                 
     s_h      4
                                                                 

     Band symmetry, C_2h (2/m)  point group:

     e(  1 -  1) =    -24.71499  eV     1   --> B_u            
     e(  2 -  2) =    -24.60221  eV     1   --> A_g            
     e(  3 -  3) =    -10.04171  eV     1   --> A_g            
     e(  4 -  5) =     -8.66036  eV     2   --> A_u            
     e(  4 -  5) =     -8.66036  eV     2   --> B_u            
     e(  6 -  6) =     -8.12806  eV     1   --> A_g            
     e(  7 -  8) =     -7.74815  eV     2   --> A_g            
     e(  7 -  8) =     -7.74815  eV     2   --> B_g            
     e(  9 -  9) =     -7.66263  eV     1   --> B_u            
     e( 10 - 10) =      4.15923  eV     1   --> B_u            
     e( 11 - 12) =      4.87575  eV     2   --> A_u            
     e( 11 - 12) =      4.87575  eV     2   --> B_u            
     e( 13 - 13) =      8.11666  eV     1   --> A_g            
     e( 14 - 14) =     10.97156  eV     1   --> B_u            
     e( 15 - 15) =     11.05750  eV     1   --> A_g            
     e( 16 - 16) =     11.29696  eV     1   --> A_u            
     e( 17 - 17) =     12.70299  eV     1   --> A_g            
     e( 18 - 19) =     13.17943  eV     2   --> A_u            
     e( 18 - 19) =     13.17943  eV     2   --> B_u            
     e( 20 - 21) =     13.97084  eV     2   --> A_g            
     e( 20 - 21) =     13.97084  eV     2   --> B_g            
     e( 22 - 22) =     16.14137  eV     1   --> B_u            
     e( 23 - 23) =     16.15437  eV     1   --> B_u            
     e( 24 - 24) =     16.15482  eV     1   --> A_u            
     e( 25 - 25) =     17.26585  eV     1   --> B_g            
     e( 26 - 26) =     18.14006  eV     1   --> B_u            
     e( 27 - 27) =     19.00380  eV     1   --> B_g            
     e( 28 - 28) =     20.34225  eV     1   --> A_g            
     e( 29 - 29) =     20.93128  eV     1   --> A_g            
     e( 30 - 30) =     23.48189  eV     1   --> A_g            
     e( 31 - 31) =     23.48225  eV     1   --> B_g            
     e( 32 - 32) =     24.47423  eV     1   --> A_u            
     e( 33 - 33) =     24.47445  eV     1   --> B_u            
     e( 34 - 34) =     24.89916  eV     1   --> A_g            
     e( 35 - 35) =     26.38764  eV     1   --> B_u            
     e( 36 - 36) =     28.88668  eV     1   --> A_g            
     e( 37 - 37) =     29.55768  eV     1   --> B_u            
     e( 38 - 38) =     29.55855  eV     1   --> A_u            
     e( 39 - 39) =     30.18261  eV     1   --> B_u            
     e( 40 - 40) =     30.54437  eV     1   --> A_g            

 **************************************************************************

 **************************************************************************

                    xk=(   0.08838,   0.61872,   0.08838  )

     point group C_s (m)    
     there are  2 classes
     the character table:

       E     s    
A'     1.00  1.00
A''    1.00 -1.00

     the symmetry operations in each class and the name of the first element:

     E        1
                                                                 
     s        2
                                                                 

     Band symmetry, C_s (m)     point group:

     e(  1 -  1) =    -24.71133  eV     1   --> A'             
     e(  2 -  2) =    -24.60701  eV     1   --> A'             
     e(  3 -  3) =    -10.01263  eV     1   --> A'             
     e(  4 -  4) =     -8.64648  eV     1   --> A'             
     e(  5 -  5) =     -8.62524  eV     1   --> A''            
     e(  6 -  6) =     -8.10151  eV     1   --> A'             
     e(  7 -  7) =     -7.78724  eV     1   --> A'             
     e(  8 -  8) =     -7.78231  eV     1   --> A''            
     e(  9 -  9) =     -7.70302  eV     1   --> A'             
     e( 10 - 10) =      4.21199  eV     1   --> A'             
     e( 11 - 11) =      4.82759  eV     1   --> A'             
     e( 12 - 12) =      4.84889  eV     1   --> A''            
     e( 13 - 13) =      8.22506  eV     1   --> A'             
     e( 14 - 14) =     10.80595  eV     1   --> A'             
     e( 15 - 15) =     11.15952  eV     1   --> A'             
     e( 16 - 16) =     11.36121  eV     1   --> A''            
     e( 17 - 17) =     12.65466  eV     1   --> A'             
     e( 18 - 18) =     12.85675  eV     1   --> A''            
     e( 19 - 19) =     13.24659  eV     1   --> A'             
     e( 20 - 20) =     14.10939  eV     1   --> A''            
     e( 21 - 21) =     14.21277  eV     1   --> A'             
     e( 22 - 22) =     15.73642  eV     1   --> A''            
     e( 23 - 23) =     15.80192  eV     1   --> A'             
     e( 24 - 24) =     15.99003  eV     1   --> A'             
     e( 25 - 25) =     17.68050  eV     1   --> A''            
     e( 26 - 26) =     18.12625  eV     1   --> A'             
     e( 27 - 27) =     19.50689  eV     1   --> A''            
     e( 28 - 28) =     20.29241  eV     1   --> A'             
     e( 29 - 29) =     21.14423  eV     1   --> A'             
     e( 30 - 30) =     23.13788  eV     1   --> A'             
     e( 31 - 31) =     23.48554  eV     1   --> A''            
     e( 32 - 32) =     23.87068  eV     1   --> A'             
     e( 33 - 33) =     24.72850  eV     1   --> A''            
     e( 34 - 34) =     25.76503  eV     1   --> A'             
     e( 35 - 35) =     26.91777  eV     1   --> A'             
     e( 36 - 36) =     28.99799  eV     1   --> A'             
     e( 37 - 37) =     29.35626  eV     1   --> A'             
     e( 38 - 38) =     29.48439  eV     1   --> A''            
     e( 39 - 39) =     29.80298  eV     1   --> A'             
     e( 40 - 40) =     30.46376  eV     1   --> A'             

 **************************************************************************

 **************************************************************************

                    xk=(   0.17677,   0.53033,   0.17677  )

     Band symmetry, C_s (m)     point group:

     e(  1 -  1) =    -24.70061  eV     1   --> A'             
     e(  2 -  2) =    -24.62047  eV     1   --> A'             
     e(  3 -  3) =     -9.94012  eV     1   --> A'             
     e(  4 -  4) =     -8.58019  eV     1   --> A'             
     e(  5 -  5) =     -8.52548  eV     1   --> A''            
     e(  6 -  6) =     -8.09125  eV     1   --> A'             
     e(  7 -  7) =     -7.87997  eV     1   --> A''            
     e(  8 -  8) =     -7.85088  eV     1   --> A'             
     e(  9 -  9) =     -7.81226  eV     1   --> A'             
     e( 10 - 10) =      4.34165  eV     1   --> A'             
     e( 11 - 11) =      4.71591  eV     1   --> A'             
     e( 12 - 12) =      4.78373  eV     1   --> A''            
     e( 13 - 13) =      8.45051  eV     1   --> A'             
     e( 14 - 14) =     10.66744  eV     1   --> A'             
     e( 15 - 15) =     11.40840  eV     1   --> A'             
     e( 16 - 16) =     11.48811  eV     1   --> A''            
     e( 17 - 17) =     12.43821  eV     1   --> A''            
     e( 18 - 18) =     12.75858  eV     1   --> A'             
     e( 19 - 19) =     13.14108  eV     1   --> A'             
     e( 20 - 20) =     14.24172  eV     1   --> A''            
     e( 21 - 21) =     14.35504  eV     1   --> A'             
     e( 22 - 22) =     14.95509  eV     1   --> A''            
     e( 23 - 23) =     15.09713  eV     1   --> A'             
     e( 24 - 24) =     15.56598  eV     1   --> A'             
     e( 25 - 25) =     18.39812  eV     1   --> A'             
     e( 26 - 26) =     18.50368  eV     1   --> A''            
     e( 27 - 27) =     20.22469  eV     1   --> A'             
     e( 28 - 28) =     20.73197  eV     1   --> A''            
     e( 29 - 29) =     21.61689  eV     1   --> A'             
     e( 30 - 30) =     22.67901  eV     1   --> A'             
     e( 31 - 31) =     23.44642  eV     1   --> A''            
     e( 32 - 32) =     23.86456  eV     1   --> A'             
     e( 33 - 33) =     25.23091  eV     1   --> A''            
     e( 34 - 34) =     26.26581  eV     1   --> A'             
     e( 35 - 35) =     26.95161  eV     1   --> A'             
     e( 36 - 36) =     28.42553  eV     1   --> A'             
     e( 37 - 37) =     28.74528  eV     1   --> A'             
     e( 38 - 38) =     29.33437  eV     1   --> A''            
     e( 39 - 39) =     29.45810  eV     1   --> A'             
     e( 40 - 40) =     30.22085  eV     1   --> A''            

 **************************************************************************

 **************************************************************************

                    xk=(   0.26516,   0.44194,   0.26516  )

     Band symmetry, C_s (m)     point group:

     e(  1 -  1) =    -24.68367  eV     1   --> A'             
     e(  2 -  2) =    -24.64014  eV     1   --> A'             
     e(  3 -  3) =     -9.86281  eV     1   --> A'             
     e(  4 -  4) =     -8.43768  eV     1   --> A'             
     e(  5 -  5) =     -8.37653  eV     1   --> A''            
     e(  6 -  6) =     -8.17179  eV     1   --> A'             
     e(  7 -  7) =     -8.02680  eV     1   --> A''            
     e(  8 -  8) =     -8.00863  eV     1   --> A'             
     e(  9 -  9) =     -7.81720  eV     1   --> A'             
     e( 10 - 10) =      4.41782  eV     1   --> A'             
     e( 11 - 11) =      4.66251  eV     1   --> A'             
     e( 12 - 12) =      4.71820  eV     1   --> A''            
     e( 13 - 13) =      8.69677  eV     1   --> A'             
     e( 14 - 14) =     10.82498  eV     1   --> A'             
     e( 15 - 15) =     11.41931  eV     1   --> A'             
     e( 16 - 16) =     11.42718  eV     1   --> A''            
     e( 17 - 17) =     12.55225  eV     1   --> A''            
     e( 18 - 18) =     12.77153  eV     1   --> A'             
     e( 19 - 19) =     13.37775  eV     1   --> A'             
     e( 20 - 20) =     13.94057  eV     1   --> A'             
     e( 21 - 21) =     13.99360  eV     1   --> A''            
     e( 22 - 22) =     14.40732  eV     1   --> A''            
     e( 23 - 23) =     14.60082  eV     1   --> A'             
     e( 24 - 24) =     14.98586  eV     1   --> A'             
     e( 25 - 25) =     19.01066  eV     1   --> A'             
     e( 26 - 26) =     19.43742  eV     1   --> A''            
     e( 27 - 27) =     20.30060  eV     1   --> A'             
     e( 28 - 28) =     21.91842  eV     1   --> A''            
     e( 29 - 29) =     21.94838  eV     1   --> A'             
     e( 30 - 30) =     22.84353  eV     1   --> A'             
     e( 31 - 31) =     23.48934  eV     1   --> A''            
     e( 32 - 32) =     23.95655  eV     1   --> A'             
     e( 33 - 33) =     25.36060  eV     1   --> A''            
     e( 34 - 34) =     25.91433  eV     1   --> A'             
     e( 35 - 35) =     26.19922  eV     1   --> A'             
     e( 36 - 36) =     27.27568  eV     1   --> A'             
     e( 37 - 37) =     28.49976  eV     1   --> A'             
     e( 38 - 38) =     28.79413  eV     1   --> A''            
     e( 39 - 39) =     29.88588  eV     1   --> A'             
     e( 40 - 40) =     30.24480  eV     1   --> A''            

 **************************************************************************

 **************************************************************************

                    xk=(   0.35355,   0.35355,   0.35355  )

     point group D_3d (-3m) 
     there are  6 classes
     the character table:

       E     2C3   3C2'  i     2S6   3s_d 
A_1g   1.00  1.00  1.00  1.00  1.00  1.00
A_2g   1.00  1.00 -1.00  1.00  1.00 -1.00
E_g    2.00 -1.00  0.00  2.00 -1.00  0.00
A_1u   1.00  1.00  1.00 -1.00 -1.00 -1.00
A_2u   1.00  1.00 -1.00 -1.00 -1.00  1.00
E_u    2.00 -1.00  0.00 -2.00  1.00  0.00

     the symmetry operations in each class and the name of the first element:

     E        1
                                                                 
     2C3      5    6
                                                                 
     3C2'     2    4    3
                                                                 
     i        7
                                                                 
     2S6     11   12
                                                                 
     3s_d     8   10    9
                                                                 

     Band symmetry, D_3d (-3m)  point group:

     e(  1 -  1) =    -24.66293  eV     1   --> A_1g L_1       
     e(  2 -  2) =    -24.66202  eV     1   --> A_2u L_2'      
     e(  3 -  3) =     -9.82873  eV     1   --> A_1g L_1       
     e(  4 -  4) =     -8.27755  eV     1   --> A_2u L_2'      
     e(  5 -  6) =     -8.20860  eV     2   --> E_u  L_3'      
     e(  7 -  8) =     -8.19385  eV     2   --> E_g  L_3       
     e(  9 -  9) =     -7.79896  eV     1   --> A_1g L_1       
     e( 10 - 10) =      4.39889  eV     1   --> A_2u L_2'      
     e( 11 - 12) =      4.69098  eV     2   --> E_u  L_3'      
     e( 13 - 13) =      8.85399  eV     1   --> A_2u L_2'      
     e( 14 - 14) =     10.86177  eV     1   --> A_1g L_1       
     e( 15 - 16) =     11.33893  eV     2   --> E_g  L_3       
     e( 17 - 18) =     12.98373  eV     2   --> E_u  L_3'      
     e( 19 - 20) =     13.39043  eV     2   --> E_g  L_3       
     e( 21 - 21) =     13.77462  eV     1   --> A_1g L_1       
     e( 22 - 23) =     14.39300  eV     2   --> E_u  L_3'      
     e( 24 - 24) =     14.66060  eV     1   --> A_2u L_2'      
     e( 25 - 25) =     19.62716  eV     1   --> A_2u L_2'      
     e( 26 - 27) =     19.95962  eV     2   --> E_g  L_3       
     e( 28 - 29) =     22.06182  eV     2   --> E_u  L_3'      
     e( 30 - 30) =     23.35977  eV     1   --> A_1g L_1       
     e( 31 - 32) =     24.20429  eV     2   --> E_g  L_3       
     e( 33 - 34) =     24.83487  eV     2   --> E_u  L_3'      
     e( 35 - 35) =     26.24449  eV     1   --> A_1g L_1       
     e( 36 - 36) =     26.58309  eV     1   --> A_2u L_2'      
     e( 37 - 38) =     28.44149  eV     2   --> E_g  L_3       
     e( 39 - 40) =     30.68674  eV     2   --> E_u  L_3'      

 **************************************************************************

 **************************************************************************

                    xk=(   0.32406,   0.32406,   0.32406  )

     point group C_3v (3m)  
     there are  3 classes
     the character table:

       E     2C3   3s_v 
A_1    1.00  1.00  1.00
A_2    1.00  1.00 -1.00
E      2.00 -1.00  0.00

     the symmetry operations in each class and the name of the first element:

     E        1
                                                                 
     2C3      2    3
                                                                 
     3s_v     4    5    6
                                                                 

     Band symmetry, C_3v (3m)   point group:

     e(  1 -  1) =    -24.68488  eV     1   --> A_1  L_1       
     e(  2 -  2) =    -24.64024  eV     1   --> A_1  L_1       
     e(  3 -  3) =     -9.82299  eV     1   --> A_1  L_1       
     e(  4 -  4) =     -8.28356  eV     1   --> A_1  L_1       
     e(  5 -  6) =     -8.24252  eV     2   --> E    L_3       
     e(  7 -  8) =     -8.15879  eV     2   --> E    L_3       
     e(  9 -  9) =     -7.79675  eV     1   --> A_1  L_1       
     e( 10 - 10) =      4.39316  eV     1   --> A_1  L_1       
     e( 11 - 12) =      4.68639  eV     2   --> E    L_3       
     e( 13 - 13) =      8.82197  eV     1   --> A_1  L_1       
     e( 14 - 14) =     10.86309  eV     1   --> A_1  L_1       
     e( 15 - 16) =     11.30328  eV     2   --> E    L_3       
     e( 17 - 18) =     12.93281  eV     2   --> E    L_3       
     e( 19 - 20) =     13.46594  eV     2   --> E    L_3       
     e( 21 - 21) =     13.78439  eV     1   --> A_1  L_1       
     e( 22 - 23) =     14.43317  eV     2   --> E    L_3       
     e( 24 - 24) =     14.73205  eV     1   --> A_1  L_1       
     e( 25 - 25) =     19.60472  eV     1   --> A_1  L_1       
     e( 26 - 27) =     19.95717  eV     2   --> E    L_3       
     e( 28 - 29) =     22.02295  eV     2   --> E    L_3       
     e( 30 - 30) =     23.40087  eV     1   --> A_1  L_1       
     e( 31 - 32) =     24.23533  eV     2   --> E    L_3       
     e( 33 - 34) =     24.77168  eV     2   --> E    L_3       
     e( 35 - 35) =     25.70891  eV     1   --> A_1  L_1       
     e( 36 - 36) =     27.12252  eV     1   --> A_1  L_1       
     e( 37 - 38) =     28.52161  eV     2   --> E    L_3       
     e( 39 - 39) =     30.54541  eV     1   --> A_2  L_2       
     e( 40 - 40) =     30.73648  eV     1   -->   ?

 **************************************************************************

 **************************************************************************

                    xk=(   0.29465,   0.29465,   0.29465  )

     Band symmetry, C_3v (3m)   point group:

     e(  1 -  1) =    -24.70702  eV     1   --> A_1  L_1       
     e(  2 -  2) =    -24.61861  eV     1   --> A_1  L_1       
     e(  3 -  3) =     -9.80614  eV     1   --> A_1  L_1       
     e(  4 -  4) =     -8.30044  eV     1   --> A_1  L_1       
     e(  5 -  6) =     -8.28096  eV     2   --> E    L_3       
     e(  7 -  8) =     -8.11701  eV     2   --> E    L_3       
     e(  9 -  9) =     -7.79108  eV     1   --> A_1  L_1       
     e( 10 - 10) =      4.37722  eV     1   --> A_1  L_1       
     e( 11 - 12) =      4.67300  eV     2   --> E    L_3       
     e( 13 - 13) =      8.72785  eV     1   --> A_1  L_1       
     e( 14 - 14) =     10.86585  eV     1   --> A_1  L_1       
     e( 15 - 16) =     11.20827  eV     2   --> E    L_3       
     e( 17 - 18) =     12.81703  eV     2   --> E    L_3       
     e( 19 - 20) =     13.65334  eV     2   --> E    L_3       
     e( 21 - 21) =     13.84274  eV     1   --> A_1  L_1       
     e( 22 - 23) =     14.54275  eV     2   --> E    L_3       
     e( 24 - 24) =     14.91312  eV     1   --> A_1  L_1       
     e( 25 - 25) =     19.54213  eV     1   --> A_1  L_1       
     e( 26 - 27) =     19.94838  eV     2   --> E    L_3       
     e( 28 - 29) =     21.91432  eV     2   --> E    L_3       
     e( 30 - 30) =     23.51388  eV     1   --> A_1  L_1       
     e( 31 - 32) =     24.32101  eV     2   --> E    L_3       
     e( 33 - 34) =     24.60651  eV     2   --> E    L_3       
     e( 35 - 35) =     25.05378  eV     1   --> A_1  L_1       
     e( 36 - 36) =     27.79208  eV     1   --> A_1  L_1       
     e( 37 - 38) =     28.72882  eV     2   --> E    L_3       
     e( 39 - 39) =     30.16165  eV     1   --> A_2  L_2       
     e( 40 - 40) =     30.89039  eV     1   -->   ?

 **************************************************************************

 **************************************************************************

                    xk=(   0.26516,   0.26516,   0.26516  )

     Band symmetry, C_3v (3m)   point group:

     e(  1 -  1) =    -24.72860  eV     1   --> A_1  L_1       
     e(  2 -  2) =    -24.59782  eV     1   --> A_1  L_1       
     e(  3 -  3) =     -9.77896  eV     1   --> A_1  L_1       
     e(  4 -  4) =     -8.32548  eV     1   --> A_1  L_1       
     e(  5 -  6) =     -8.31734  eV     2   --> E    L_3       
     e(  7 -  8) =     -8.07530  eV     2   --> E    L_3       
     e(  9 -  9) =     -7.78430  eV     1   --> A_1  L_1       
     e( 10 - 10) =      4.35451  eV     1   --> A_1  L_1       
     e( 11 - 12) =      4.65176  eV     2   --> E    L_3       
     e( 13 - 13) =      8.57503  eV     1   --> A_1  L_1       
     e( 14 - 14) =     10.87212  eV     1   --> A_1  L_1       
     e( 15 - 16) =     11.07806  eV     2   --> E    L_3       
     e( 17 - 18) =     12.67219  eV     2   --> E    L_3       
     e( 19 - 20) =     13.91249  eV     2   --> E    L_3       
     e( 21 - 21) =     13.99231  eV     1   --> A_1  L_1       
     e( 22 - 23) =     14.69979  eV     2   --> E    L_3       
     e( 24 - 24) =     15.14770  eV     1   --> A_1  L_1       
     e( 25 - 25) =     19.44963  eV     1   --> A_1  L_1       
     e( 26 - 27) =     19.92797  eV     2   --> E    L_3       
     e( 28 - 29) =     21.75460  eV     2   --> E    L_3       
     e( 30 - 30) =     23.65794  eV     1   --> A_1  L_1       
     e( 31 - 32) =     24.38279  eV     2   --> E    L_3       
     e( 33 - 33) =     24.44401  eV     1   --> A_1  L_1       
     e( 34 - 35) =     24.45210  eV     2   --> E    L_3       
     e( 36 - 36) =     28.44228  eV     1   --> A_1  L_1       
     e( 37 - 38) =     28.98735  eV     2   --> E    L_3       
     e( 39 - 39) =     29.81134  eV     1   --> A_2  L_2       
     e( 40 - 40) =     31.16400  eV     1   -->   ?

 **************************************************************************

 **************************************************************************

                    xk=(   0.23568,   0.23568,   0.23568  )

     Band symmetry, C_3v (3m)   point group:

     e(  1 -  1) =    -24.74919  eV     1   --> A_1  L_1       
     e(  2 -  2) =    -24.57827  eV     1   --> A_1  L_1       
     e(  3 -  3) =     -9.74298  eV     1   --> A_1  L_1       
     e(  4 -  4) =     -8.35515  eV     1   --> A_1  L_1       
     e(  5 -  6) =     -8.35095  eV     2   --> E    L_3       
     e(  7 -  8) =     -8.03474  eV     2   --> E    L_3       
     e(  9 -  9) =     -7.77914  eV     1   --> A_1  L_1       
     e( 10 - 10) =      4.33019  eV     1   --> A_1  L_1       
     e( 11 - 12) =      4.62422  eV     2   --> E    L_3       
     e( 13 - 13) =      8.36901  eV     1   --> A_1  L_1       
     e( 14 - 14) =     10.89321  eV     1   --> A_1  L_1       
     e( 15 - 16) =     10.93548  eV     2   --> E    L_3       
     e( 17 - 18) =     12.51528  eV     2   --> E    L_3       
     e( 19 - 20) =     14.22116  eV     2   --> E    L_3       
     e( 21 - 21) =     14.24471  eV     1   --> A_1  L_1       
     e( 22 - 23) =     14.88251  eV     2   --> E    L_3       
     e( 24 - 24) =     15.39373  eV     1   --> A_1  L_1       
     e( 25 - 25) =     19.33744  eV     1   --> A_1  L_1       
     e( 26 - 27) =     19.88455  eV     2   --> E    L_3       
     e( 28 - 29) =     21.56971  eV     2   --> E    L_3       
     e( 30 - 30) =     23.58169  eV     1   --> A_1  L_1       
     e( 31 - 31) =     24.13035  eV     1   --> A_1  L_1       
     e( 32 - 33) =     24.16355  eV     2   --> E    L_3       
     e( 34 - 35) =     24.59609  eV     2   --> E    L_3       
     e( 36 - 36) =     28.98090  eV     1   --> A_1  L_1       
     e( 37 - 38) =     29.21238  eV     2   --> E    L_3       
     e( 39 - 39) =     29.49732  eV     1   --> A_2  L_2       
     e( 40 - 40) =     30.81245  eV     1   --> A_1  L_1       

 **************************************************************************

 **************************************************************************

                    xk=(   0.20626,   0.20626,   0.20626  )

     Band symmetry, C_3v (3m)   point group:

     e(  1 -  1) =    -24.76835  eV     1   --> A_1  L_1       
     e(  2 -  2) =    -24.56029  eV     1   --> A_1  L_1       
     e(  3 -  3) =     -9.70038  eV     1   --> A_1  L_1       
     e(  4 -  4) =     -8.38594  eV     1   --> A_1  L_1       
     e(  5 -  6) =     -8.38127  eV     2   --> E    L_3       
     e(  7 -  8) =     -7.99634  eV     2   --> E    L_3       
     e(  9 -  9) =     -7.77785  eV     1   --> A_1  L_1       
     e( 10 - 10) =      4.31020  eV     1   --> A_1  L_1       
     e( 11 - 12) =      4.59242  eV     2   --> E    L_3       
     e( 13 - 13) =      8.11931  eV     1   --> A_1  L_1       
     e( 14 - 15) =     10.79631  eV     2   --> E    L_3       
     e( 16 - 16) =     10.94357  eV     1   --> A_1  L_1       
     e( 17 - 18) =     12.35707  eV     2   --> E    L_3       
     e( 19 - 20) =     14.56436  eV     2   --> E    L_3       
     e( 21 - 21) =     14.58161  eV     1   --> A_1  L_1       
     e( 22 - 23) =     15.07356  eV     2   --> E    L_3       
     e( 24 - 24) =     15.62819  eV     1   --> A_1  L_1       
     e( 25 - 25) =     19.21039  eV     1   --> A_1  L_1       
     e( 26 - 27) =     19.79833  eV     2   --> E    L_3       
     e( 28 - 29) =     21.39146  eV     2   --> E    L_3       
     e( 30 - 30) =     23.11218  eV     1   --> A_1  L_1       
     e( 31 - 32) =     23.96993  eV     2   --> E    L_3       
     e( 33 - 33) =     24.28319  eV     1   --> A_1  L_1       
     e( 34 - 35) =     24.75091  eV     2   --> E    L_3       
     e( 36 - 36) =     29.04548  eV     1   --> A_1  L_1       
     e( 37 - 37) =     29.22062  eV     1   --> A_2  L_2       
     e( 38 - 39) =     29.34087  eV     2   --> E    L_3       
     e( 40 - 40) =     30.61543  eV     1   --> A_1  L_1       

 **************************************************************************

 **************************************************************************

                    xk=(   0.17678,   0.17678,   0.17678  )

     Band symmetry, C_3v (3m)   point group:

     e(  1 -  1) =    -24.78584  eV     1   --> A_1  L_1       
     e(  2 -  2) =    -24.54408  eV     1   --> A_1  L_1       
     e(  3 -  3) =     -9.65359  eV     1   --> A_1  L_1       
     e(  4 -  4) =     -8.41504  eV     1   --> A_1  L_1       
     e(  5 -  6) =     -8.40813  eV     2   --> E    L_3       
     e(  7 -  8) =     -7.96077  eV     2   --> E    L_3       
     e(  9 -  9) =     -7.78175  eV     1   --> A_1  L_1       
     e( 10 - 10) =      4.29993  eV     1   --> A_1  L_1       
     e( 11 - 12) =      4.55844  eV     2   --> E    L_3       
     e( 13 - 13) =      7.83871  eV     1   --> A_1  L_1       
     e( 14 - 15) =     10.66909  eV     2   --> E    L_3       
     e( 16 - 16) =     11.03133  eV     1   --> A_1  L_1       
     e( 17 - 18) =     12.20439  eV     2   --> E    L_3       
     e( 19 - 20) =     14.93415  eV     2   --> E    L_3       
     e( 21 - 21) =     14.96725  eV     1   --> A_1  L_1       
     e( 22 - 23) =     15.26094  eV     2   --> E    L_3       
     e( 24 - 24) =     15.84999  eV     1   --> A_1  L_1       
     e( 25 - 25) =     19.06573  eV     1   --> A_1  L_1       
     e( 26 - 27) =     19.64369  eV     2   --> E    L_3       
     e( 28 - 29) =     21.25222  eV     2   --> E    L_3       
     e( 30 - 30) =     22.63266  eV     1   --> A_1  L_1       
     e( 31 - 32) =     23.82437  eV     2   --> E    L_3       
     e( 33 - 33) =     24.51643  eV     1   --> A_1  L_1       
     e( 34 - 35) =     24.90250  eV     2   --> E    L_3       
     e( 36 - 36) =     28.51274  eV     1   --> A_1  L_1       
     e( 37 - 37) =     28.98007  eV     1   --> A_2  L_2       
     e( 38 - 39) =     29.34532  eV     2   --> E    L_3       
     e( 40 - 40) =     31.05134  eV     1   --> A_1  L_1       

 **************************************************************************

 **************************************************************************

                    xk=(   0.14729,   0.14729,   0.14729  )

     Band symmetry, C_3v (3m)   point group:

     e(  1 -  1) =    -24.80126  eV     1   --> A_1  L_1       
     e(  2 -  2) =    -24.52994  eV     1   --> A_1  L_1       
     e(  3 -  3) =     -9.60584  eV     1   --> A_1  L_1       
     e(  4 -  4) =     -8.44001  eV     1   --> A_1  L_1       
     e(  5 -  6) =     -8.43118  eV     2   --> E    L_3       
     e(  7 -  8) =     -7.92899  eV     2   --> E    L_3       
     e(  9 -  9) =     -7.79105  eV     1   --> A_1  L_1       
     e( 10 - 10) =      4.30348  eV     1   --> A_1  L_1       
     e( 11 - 12) =      4.52472  eV     2   --> E    L_3       
     e( 13 - 13) =      7.54589  eV     1   --> A_1  L_1       
     e( 14 - 15) =     10.55926  eV     2   --> E    L_3       
     e( 16 - 16) =     11.15361  eV     1   --> A_1  L_1       
     e( 17 - 18) =     12.06371  eV     2   --> E    L_3       
     e( 19 - 20) =     15.32060  eV     2   --> E    L_3       
     e( 21 - 21) =     15.33873  eV     1   --> A_1  L_1       
     e( 22 - 23) =     15.43661  eV     2   --> E    L_3       
     e( 24 - 24) =     16.08705  eV     1   --> A_1  L_1       
     e( 25 - 25) =     18.89950  eV     1   --> A_1  L_1       
     e( 26 - 27) =     19.40553  eV     2   --> E    L_3       
     e( 28 - 29) =     21.17262  eV     2   --> E    L_3       
     e( 30 - 30) =     22.22072  eV     1   --> A_1  L_1       
     e( 31 - 32) =     23.73726  eV     2   --> E    L_3       
     e( 33 - 33) =     24.74954  eV     1   --> A_1  L_1       
     e( 34 - 35) =     25.04071  eV     2   --> E    L_3       
     e( 36 - 36) =     27.84630  eV     1   --> A_1  L_1       
     e( 37 - 37) =     28.77646  eV     1   --> A_2  L_2       
     e( 38 - 39) =     29.22894  eV     2   --> E    L_3       
     e( 40 - 40) =     31.62187  eV     1   --> A_1  L_1       

 **************************************************************************

 **************************************************************************

                    xk=(   0.11787,   0.11787,   0.11787  )

     Band symmetry, C_3v (3m)   point group:

     e(  1 -  1) =    -24.81429  eV     1   --> A_1  L_1       
     e(  2 -  2) =    -24.51810  eV     1   --> A_1  L_1       
     e(  3 -  3) =     -9.56065  eV     1   --> A_1  L_1       
     e(  4 -  4) =     -8.45931  eV     1   --> A_1  L_1       
     e(  5 -  6) =     -8.45021  eV     2   --> E    L_3       
     e(  7 -  8) =     -7.90184  eV     2   --> E    L_3       
     e(  9 -  9) =     -7.80471  eV     1   --> A_1  L_1       
     e( 10 - 10) =      4.32204  eV     1   --> A_1  L_1       
     e( 11 - 12) =      4.49355  eV     2   --> E    L_3       
     e( 13 - 13) =      7.26155  eV     1   --> A_1  L_1       
     e( 14 - 15) =     10.46946  eV     2   --> E    L_3       
     e( 16 - 16) =     11.29805  eV     1   --> A_1  L_1       
     e( 17 - 18) =     11.94053  eV     2   --> E    L_3       
     e( 19 - 20) =     15.57392  eV     2   --> E    L_3       
     e( 21 - 21) =     15.61015  eV     1   --> A_1  L_1       
     e( 22 - 23) =     15.73662  eV     2   --> E    L_3       
     e( 24 - 24) =     16.39526  eV     1   --> A_1  L_1       
     e( 25 - 25) =     18.71487  eV     1   --> A_1  L_1       
     e( 26 - 27) =     19.09166  eV     2   --> E    L_3       
     e( 28 - 29) =     21.14739  eV     2   --> E    L_3       
     e( 30 - 30) =     21.88560  eV     1   --> A_1  L_1       
     e( 31 - 32) =     23.70959  eV     2   --> E    L_3       
     e( 33 - 33) =     24.96007  eV     1   --> A_1  L_1       
     e( 34 - 35) =     25.15697  eV     2   --> E    L_3       
     e( 36 - 36) =     27.22129  eV     1   --> A_1  L_1       
     e( 37 - 37) =     28.61021  eV     1   --> A_2  L_2       
     e( 38 - 39) =     29.02226  eV     2   --> E    L_3       
     e( 40 - 40) =     31.97218  eV     1   --> A_1  L_1       

 **************************************************************************

 **************************************************************************

                    xk=(   0.08839,   0.08839,   0.08839  )

     Band symmetry, C_3v (3m)   point group:

     e(  1 -  1) =    -24.82473  eV     1   --> A_1  L_1       
     e(  2 -  2) =    -24.50869  eV     1   --> A_1  L_1       
     e(  3 -  3) =     -9.52124  eV     1   --> A_1  L_1       
     e(  4 -  4) =     -8.47251  eV     1   --> A_1  L_1       
     e(  5 -  6) =     -8.46517  eV     2   --> E    L_3       
     e(  7 -  8) =     -7.87989  eV     2   --> E    L_3       
     e(  9 -  9) =     -7.82065  eV     1   --> A_1  L_1       
     e( 10 - 10) =      4.35285  eV     1   --> A_1  L_1       
     e( 11 - 12) =      4.46691  eV     2   --> E    L_3       
     e( 13 - 13) =      7.00505  eV     1   --> A_1  L_1       
     e( 14 - 15) =     10.40007  eV     2   --> E    L_3       
     e( 16 - 16) =     11.44688  eV     1   --> A_1  L_1       
     e( 17 - 18) =     11.83886  eV     2   --> E    L_3       
     e( 19 - 20) =     15.69609  eV     2   --> E    L_3       
     e( 21 - 21) =     15.75588  eV     1   --> A_1  L_1       
     e( 22 - 23) =     16.15268  eV     2   --> E    L_3       
     e( 24 - 24) =     16.77396  eV     1   --> A_1  L_1       
     e( 25 - 25) =     18.52763  eV     1   --> A_1  L_1       
     e( 26 - 27) =     18.72124  eV     2   --> E    L_3       
     e( 28 - 29) =     21.15517  eV     2   --> E    L_3       
     e( 30 - 30) =     21.61590  eV     1   --> A_1  L_1       
     e( 31 - 32) =     23.73271  eV     2   --> E    L_3       
     e( 33 - 33) =     25.13410  eV     1   --> A_1  L_1       
     e( 34 - 35) =     25.24525  eV     2   --> E    L_3       
     e( 36 - 36) =     26.69509  eV     1   --> A_1  L_1       
     e( 37 - 37) =     28.48056  eV     1   --> A_2  L_2       
     e( 38 - 39) =     28.77319  eV     2   --> E    L_3       
     e( 40 - 40) =     31.92235  eV     1   --> A_1  L_1       

 **************************************************************************

 **************************************************************************

                    xk=(   0.05890,   0.05890,   0.05890  )

     Band symmetry, C_3v (3m)   point group:

     e(  1 -  1) =    -24.83235  eV     1   --> A_1  L_1       
     e(  2 -  2) =    -24.50187  eV     1   --> A_1  L_1       
     e(  3 -  3) =     -9.49076  eV     1   --> A_1  L_1       
     e(  4 -  4) =     -8.48015  eV     1   --> A_1  L_1       
     e(  5 -  6) =     -8.47591  eV     2   --> E    L_3       
     e(  7 -  8) =     -7.86377  eV     2   --> E    L_3       
     e(  9 -  9) =     -7.83577  eV     1   --> A_1  L_1       
     e( 10 - 10) =      4.38865  eV     1   --> A_1  L_1       
     e( 11 - 12) =      4.44656  eV     2   --> E    L_3       
     e( 13 - 13) =      6.79846  eV     1   --> A_1  L_1       
     e( 14 - 15) =     10.35120  eV     2   --> E    L_3       
     e( 16 - 16) =     11.57762  eV     1   --> A_1  L_1       
     e( 17 - 18) =     11.76303  eV     2   --> E    L_3       
     e( 19 - 20) =     15.78355  eV     2   --> E    L_3       
     e( 21 - 21) =     15.82167  eV     1   --> A_1  L_1       
     e( 22 - 23) =     16.58047  eV     2   --> E    L_3       
     e( 24 - 24) =     17.13895  eV     1   --> A_1  L_1       
     e( 25 - 26) =     18.31557  eV     2   --> E    L_3       
     e( 27 - 27) =     18.36698  eV     1   --> A_1  L_1       
     e( 28 - 29) =     21.17468  eV     2   --> E    L_3       
     e( 30 - 30) =     21.40220  eV     1   --> A_1  L_1       
     e( 31 - 32) =     23.78677  eV     2   --> E    L_3       
     e( 33 - 33) =     25.25729  eV     1   --> A_1  L_1       
     e( 34 - 35) =     25.30213  eV     2   --> E    L_3       
     e( 36 - 36) =     26.30788  eV     1   --> A_1  L_1       
     e( 37 - 37) =     28.38795  eV     1   --> A_2  L_2       
     e( 38 - 39) =     28.53910  eV     2   --> E    L_3       
     e( 40 - 40) =     31.75080  eV     1   --> A_1  L_1       

 **************************************************************************

 **************************************************************************

                    xk=(   0.02949,   0.02949,   0.02949  )

     Band symmetry, C_3v (3m)   point group:

     e(  1 -  1) =    -24.83697  eV     1   --> A_1  L_1       
     e(  2 -  2) =    -24.49773  eV     1   --> A_1  L_1       
     e(  3 -  3) =     -9.47156  eV     1   --> A_1  L_1       
     e(  4 -  4) =     -8.48367  eV     1   --> A_1  L_1       
     e(  5 -  6) =     -8.48236  eV     2   --> E    L_3       
     e(  7 -  8) =     -7.85395  eV     2   --> E    L_3       
     e(  9 -  9) =     -7.84667  eV     1   --> A_1  L_1       
     e( 10 - 10) =      4.41797  eV     1   --> A_1  L_1       
     e( 11 - 12) =      4.43387  eV     2   --> E    L_3       
     e( 13 - 13) =      6.66312  eV     1   --> A_1  L_1       
     e( 14 - 15) =     10.32230  eV     2   --> E    L_3       
     e( 16 - 16) =     11.66766  eV     1   --> A_1  L_1       
     e( 17 - 18) =     11.71626  eV     2   --> E    L_3       
     e( 19 - 20) =     15.83622  eV     2   --> E    L_3       
     e( 21 - 21) =     15.84740  eV     1   --> A_1  L_1       
     e( 22 - 23) =     17.01350  eV     2   --> E    L_3       
     e( 24 - 24) =     17.40123  eV     1   --> A_1  L_1       
     e( 25 - 26) =     17.89150  eV     2   --> E    L_3       
     e( 27 - 27) =     18.26274  eV     1   --> A_1  L_1       
     e( 28 - 29) =     21.19133  eV     2   --> E    L_3       
     e( 30 - 30) =     21.25339  eV     1   --> A_1  L_1       
     e( 31 - 32) =     23.84095  eV     2   --> E    L_3       
     e( 33 - 33) =     25.32122  eV     1   --> A_1  L_1       
     e( 34 - 35) =     25.33051  eV     2   --> E    L_3       
     e( 36 - 36) =     26.08253  eV     1   --> A_1  L_1       
     e( 37 - 37) =     28.33251  eV     1   --> A_2  L_2       
     e( 38 - 39) =     28.37338  eV     2   --> E    L_3       
     e( 40 - 40) =     31.61758  eV     1   --> A_1  L_1       

 **************************************************************************

 **************************************************************************

                    xk=(   0.00000,   0.00000,   0.00000  )

     point group D_3d (-3m) 
     there are  6 classes
     the character table:

       E     2C3   3C2'  i     2S6   3s_d 
A_1g   1.00  1.00  1.00  1.00  1.00  1.00
A_2g   1.00  1.00 -1.00  1.00  1.00 -1.00
E_g    2.00 -1.00  0.00  2.00 -1.00  0.00
A_1u   1.00  1.00  1.00 -1.00 -1.00 -1.00
A_2u   1.00  1.00 -1.00 -1.00 -1.00  1.00
E_u    2.00 -1.00  0.00 -2.00  1.00  0.00

     the symmetry operations in each class and the name of the first element:

     E        1
                                                                 
     2C3      5    6
                                                                 
     3C2'     2    4    3
                                                                 
     i        7
                                                                 
     2S6     11   12
                                                                 
     3s_d     8   10    9
                                                                 

     Band symmetry, D_3d (-3m)  point group:

     e(  1 -  1) =    -24.83854  eV     1   --> A_1g L_1       
     e(  2 -  2) =    -24.49631  eV     1   --> A_2u L_2'      
     e(  3 -  3) =     -9.46498  eV     1   --> A_1g L_1       
     e(  4 -  4) =     -8.48462  eV     1   --> A_1g L_1       
     e(  5 -  6) =     -8.48452  eV     2   --> E_g  L_3       
     e(  7 -  9) =     -7.85067  eV     3   --> A_2u L_2'      
     e(  7 -  9) =     -7.85067  eV     3   --> E_u  L_3'      
     e( 10 - 12) =      4.42954  eV     3   --> A_2u L_2'      
     e( 10 - 12) =      4.42954  eV     3   --> E_u  L_3'      
     e( 13 - 13) =      6.61555  eV     1   --> A_1g L_1       
     e( 14 - 15) =     10.31271  eV     2   --> E_g  L_3       
     e( 16 - 16) =     11.70002  eV     1   --> A_2u L_2'      
     e( 17 - 18) =     11.70039  eV     2   --> E_u  L_3'      
     e( 19 - 21) =     15.85380  eV     3   --> A_1g L_1       
     e( 19 - 21) =     15.85380  eV     3   --> E_g  L_3       
     e( 22 - 23) =     17.41051  eV     2   --> E_u  L_3'      
     e( 24 - 24) =     17.49643  eV     1   --> A_1g L_1       
     e( 25 - 26) =     17.49681  eV     2   --> E_g  L_3       
     e( 27 - 27) =     18.22839  eV     1   --> A_1g L_1       
     e( 28 - 30) =     21.19765  eV     3   --> A_2u L_2'      
     e( 28 - 30) =     21.19765  eV     3   --> E_u  L_3'      
     e( 31 - 32) =     23.86380  eV     2   --> E_g  L_3       
     e( 33 - 33) =     25.33768  eV     1   --> A_2u L_2'      
     e( 34 - 35) =     25.33843  eV     2   --> E_u  L_3'      
     e( 36 - 36) =     26.01187  eV     1   --> A_2u L_2'      
     e( 37 - 38) =     28.31330  eV     2   --> E_u  L_3'      
     e( 39 - 39) =     28.31397  eV     1   --> A_1u L_1'      
     e( 40 - 40) =     31.56907  eV     1   --> A_1g L_1       

 **************************************************************************

 **************************************************************************

                    xk=(   0.04419,  -0.04420,   0.04419  )

     point group C_s (m)    
     there are  2 classes
     the character table:

       E     s    
A'     1.00  1.00
A''    1.00 -1.00

     the symmetry operations in each class and the name of the first element:

     E        1
                                                                 
     s        2
                                                                 

     Band symmetry, C_s (m)     point group:

     e(  1 -  1) =    -24.83504  eV     1   --> A'             
     e(  2 -  2) =    -24.49946  eV     1   --> A'             
     e(  3 -  3) =     -9.47965  eV     1   --> A'             
     e(  4 -  4) =     -8.48224  eV     1   --> A'             
     e(  5 -  6) =     -8.47976  eV     2   --> A'             
[...]
     e( 14 - 14) =     10.86155  eV     1   --> A_g            
     e( 15 - 15) =     11.33844  eV     1   --> B_g            
     e( 16 - 16) =     11.33902  eV     1   --> A_g            
     e( 17 - 17) =     12.98346  eV     1   --> A_u            
     e( 18 - 18) =     12.98360  eV     1   --> B_u            
     e( 19 - 19) =     13.38944  eV     1   --> A_g            
     e( 20 - 20) =     13.39062  eV     1   --> B_g            
     e( 21 - 21) =     13.77438  eV     1   --> A_g            
     e( 22 - 22) =     14.39343  eV     1   --> B_u            
     e( 23 - 23) =     14.39358  eV     1   --> A_u            
     e( 24 - 24) =     14.66208  eV     1   --> B_u            
     e( 25 - 25) =     19.62665  eV     1   --> B_u            
     e( 26 - 26) =     19.95968  eV     1   --> A_g            
     e( 27 - 27) =     19.96045  eV     1   --> B_g            
     e( 28 - 28) =     22.06086  eV     1   --> A_u            
     e( 29 - 29) =     22.06165  eV     1   --> B_u            
     e( 30 - 30) =     23.36137  eV     1   --> A_g            
     e( 31 - 31) =     24.20518  eV     1   --> B_g            
     e( 32 - 32) =     24.20546  eV     1   --> A_g            
     e( 33 - 33) =     24.83335  eV     1   --> B_u            
     e( 34 - 34) =     24.83414  eV     1   --> A_u            
     e( 35 - 35) =     26.24427  eV     1   --> A_g            
     e( 36 - 36) =     26.58245  eV     1   --> B_u            
     e( 37 - 37) =     28.43989  eV     1   --> B_g            
     e( 38 - 38) =     28.44088  eV     1   --> A_g            
     e( 39 - 39) =     30.68718  eV     1   --> B_u            
     e( 40 - 40) =     30.68923  eV     1   --> A_u            

 **************************************************************************

 **************************************************************************

                    xk=(   0.41246,  -0.29466,   0.29465  )

     point group C_1 (1)    
     there are  1 classes
     the character table:

       E    
A      1.00

     the symmetry operations in each class and the name of the first element:

     E        1
                                                                 

     Band symmetry, C_1 (1)     point group:

     e(  1 -  1) =    -24.67694  eV     1   --> A              
     e(  2 -  2) =    -24.64748  eV     1   --> A              
     e(  3 -  3) =     -9.84462  eV     1   --> A              
     e(  4 -  4) =     -8.37641  eV     1   --> A              
     e(  5 -  5) =     -8.31985  eV     1   --> A              
     e(  6 -  6) =     -8.19778  eV     1   --> A              
     e(  7 -  7) =     -8.08311  eV     1   --> A              
     e(  8 -  8) =     -8.07687  eV     1   --> A              
     e(  9 -  9) =     -7.80754  eV     1   --> A              
     e( 10 - 10) =      4.41159  eV     1   --> A              
     e( 11 - 11) =      4.67421  eV     1   --> A              
     e( 12 - 12) =      4.70348  eV     1   --> A              
     e( 13 - 13) =      8.77421  eV     1   --> A              
     e( 14 - 14) =     10.86728  eV     1   --> A              
     e( 15 - 15) =     11.36219  eV     1   --> A              
     e( 16 - 16) =     11.38196  eV     1   --> A              
     e( 17 - 17) =     12.70742  eV     1   --> A              
     e( 18 - 18) =     12.85807  eV     1   --> A              
     e( 19 - 19) =     13.43056  eV     1   --> A              
     e( 20 - 20) =     13.74468  eV     1   --> A              
     e( 21 - 21) =     13.81224  eV     1   --> A              
     e( 22 - 22) =     14.39496  eV     1   --> A              
     e( 23 - 23) =     14.50154  eV     1   --> A              
     e( 24 - 24) =     14.81660  eV     1   --> A              
     e( 25 - 25) =     19.25154  eV     1   --> A              
     e( 26 - 26) =     19.70232  eV     1   --> A              
     e( 27 - 27) =     20.21889  eV     1   --> A              
     e( 28 - 28) =     22.00450  eV     1   --> A              
     e( 29 - 29) =     22.05548  eV     1   --> A              
     e( 30 - 30) =     23.09777  eV     1   --> A              
     e( 31 - 31) =     23.70999  eV     1   --> A              
     e( 32 - 32) =     23.93875  eV     1   --> A              
     e( 33 - 33) =     25.21245  eV     1   --> A              
     e( 34 - 34) =     25.60806  eV     1   --> A              
     e( 35 - 35) =     26.06863  eV     1   --> A              
     e( 36 - 36) =     26.95587  eV     1   --> A              
     e( 37 - 37) =     28.44591  eV     1   --> A              
     e( 38 - 38) =     28.60364  eV     1   --> A              
     e( 39 - 39) =     30.28486  eV     1   --> A              
     e( 40 - 40) =     30.42850  eV     1   --> A              

 **************************************************************************

 **************************************************************************

                    xk=(   0.47143,  -0.23569,   0.23568  )

     Band symmetry, C_1 (1)     point group:

     e(  1 -  1) =    -24.68990  eV     1   --> A              
     e(  2 -  2) =    -24.63310  eV     1   --> A              
     e(  3 -  3) =     -9.88622  eV     1   --> A              
     e(  4 -  4) =     -8.49312  eV     1   --> A              
     e(  5 -  5) =     -8.43044  eV     1   --> A              
     e(  6 -  6) =     -8.14128  eV     1   --> A              
     e(  7 -  7) =     -7.97362  eV     1   --> A              
     e(  8 -  8) =     -7.94394  eV     1   --> A              
     e(  9 -  9) =     -7.82662  eV     1   --> A              
     e( 10 - 10) =      4.41047  eV     1   --> A              
     e( 11 - 11) =      4.66324  eV     1   --> A              
     e( 12 - 12) =      4.73750  eV     1   --> A              
     e( 13 - 13) =      8.61290  eV     1   --> A              
     e( 14 - 14) =     10.75728  eV     1   --> A              
     e( 15 - 15) =     11.46866  eV     1   --> A              
     e( 16 - 16) =     11.47179  eV     1   --> A              
     e( 17 - 17) =     12.44250  eV     1   --> A              
     e( 18 - 18) =     12.72657  eV     1   --> A              
     e( 19 - 19) =     13.28596  eV     1   --> A              
     e( 20 - 20) =     14.10744  eV     1   --> A              
     e( 21 - 21) =     14.18950  eV     1   --> A              
     e( 22 - 22) =     14.48061  eV     1   --> A              
     e( 23 - 23) =     14.72833  eV     1   --> A              
     e( 24 - 24) =     15.18293  eV     1   --> A              
     e( 25 - 25) =     18.78364  eV     1   --> A              
     e( 26 - 26) =     19.13366  eV     1   --> A              
     e( 27 - 27) =     20.30511  eV     1   --> A              
     e( 28 - 28) =     21.61189  eV     1   --> A              
     e( 29 - 29) =     21.87124  eV     1   --> A              
     e( 30 - 30) =     22.67099  eV     1   --> A              
     e( 31 - 31) =     23.40943  eV     1   --> A              
     e( 32 - 32) =     23.97450  eV     1   --> A              
     e( 33 - 33) =     25.40365  eV     1   --> A              
     e( 34 - 34) =     25.99587  eV     1   --> A              
     e( 35 - 35) =     26.55303  eV     1   --> A              
     e( 36 - 36) =     27.65826  eV     1   --> A              
     e( 37 - 37) =     28.63877  eV     1   --> A              
     e( 38 - 38) =     29.01592  eV     1   --> A              
     e( 39 - 39) =     29.47094  eV     1   --> A              
     e( 40 - 40) =     30.12445  eV     1   --> A              

 **************************************************************************

 **************************************************************************

                    xk=(   0.53033,  -0.17678,   0.17678  )

     Band symmetry, C_1 (1)     point group:

     e(  1 -  1) =    -24.70060  eV     1   --> A              
     e(  2 -  2) =    -24.62047  eV     1   --> A              
     e(  3 -  3) =     -9.94019  eV     1   --> A              
     e(  4 -  4) =     -8.58010  eV     1   --> A              
     e(  5 -  5) =     -8.52554  eV     1   --> A              
     e(  6 -  6) =     -8.09135  eV     1   --> A              
     e(  7 -  7) =     -7.88001  eV     1   --> A              
     e(  8 -  8) =     -7.85074  eV     1   --> A              
     e(  9 -  9) =     -7.81221  eV     1   --> A              
     e( 10 - 10) =      4.34172  eV     1   --> A              
     e( 11 - 11) =      4.71596  eV     1   --> A              
     e( 12 - 12) =      4.78376  eV     1   --> A              
     e( 13 - 13) =      8.45035  eV     1   --> A              
     e( 14 - 14) =     10.66733  eV     1   --> A              
     e( 15 - 15) =     11.40814  eV     1   --> A              
     e( 16 - 16) =     11.48805  eV     1   --> A              
     e( 17 - 17) =     12.43799  eV     1   --> A              
     e( 18 - 18) =     12.75878  eV     1   --> A              
     e( 19 - 19) =     13.14130  eV     1   --> A              
     e( 20 - 20) =     14.24212  eV     1   --> A              
     e( 21 - 21) =     14.35461  eV     1   --> A              
     e( 22 - 22) =     14.95443  eV     1   --> A              
     e( 23 - 23) =     15.09717  eV     1   --> A              
     e( 24 - 24) =     15.56705  eV     1   --> A              
     e( 25 - 25) =     18.39827  eV     1   --> A              
     e( 26 - 26) =     18.50368  eV     1   --> A              
     e( 27 - 27) =     20.22452  eV     1   --> A              
     e( 28 - 28) =     20.73217  eV     1   --> A              
     e( 29 - 29) =     21.61685  eV     1   --> A              
     e( 30 - 30) =     22.67922  eV     1   --> A              
     e( 31 - 31) =     23.44600  eV     1   --> A              
     e( 32 - 32) =     23.86455  eV     1   --> A              
     e( 33 - 33) =     25.23091  eV     1   --> A              
     e( 34 - 34) =     26.26613  eV     1   --> A              
     e( 35 - 35) =     26.95153  eV     1   --> A              
     e( 36 - 36) =     28.42534  eV     1   --> A              
     e( 37 - 37) =     28.74598  eV     1   --> A              
     e( 38 - 38) =     29.33372  eV     1   --> A              
     e( 39 - 39) =     29.45810  eV     1   --> A              
     e( 40 - 40) =     30.22003  eV     1   --> A              

 **************************************************************************

 **************************************************************************

                    xk=(   0.58924,  -0.11788,   0.11787  )

     Band symmetry, C_1 (1)     point group:

     e(  1 -  1) =    -24.70851  eV     1   --> A              
     e(  2 -  2) =    -24.61063  eV     1   --> A              
     e(  3 -  3) =     -9.99178  eV     1   --> A              
     e(  4 -  4) =     -8.63206  eV     1   --> A              
     e(  5 -  5) =     -8.59864  eV     1   --> A              
     e(  6 -  6) =     -8.08932  eV     1   --> A              
     e(  7 -  7) =     -7.81083  eV     1   --> A              
     e(  8 -  8) =     -7.80840  eV     1   --> A              
     e(  9 -  9) =     -7.73380  eV     1   --> A              
     e( 10 - 10) =      4.25030  eV     1   --> A              
     e( 11 - 11) =      4.79376  eV     1   --> A              
     e( 12 - 12) =      4.82985  eV     1   --> A              
     e( 13 - 13) =      8.29523  eV     1   --> A              
     e( 14 - 14) =     10.72877  eV     1   --> A              
     e( 15 - 15) =     11.23518  eV     1   --> A              
     e( 16 - 16) =     11.40569  eV     1   --> A              
     e( 17 - 17) =     12.68953  eV     1   --> A              
     e( 18 - 18) =     12.69100  eV     1   --> A              
     e( 19 - 19) =     13.21067  eV     1   --> A              
     e( 20 - 20) =     14.16579  eV     1   --> A              
     e( 21 - 21) =     14.32096  eV     1   --> A              
     e( 22 - 22) =     15.49211  eV     1   --> A              
     e( 23 - 23) =     15.57541  eV     1   --> A              
     e( 24 - 24) =     15.87539  eV     1   --> A              
     e( 25 - 25) =     17.92827  eV     1   --> A              
     e( 26 - 26) =     18.16704  eV     1   --> A              
     e( 27 - 27) =     19.86218  eV     1   --> A              
     e( 28 - 28) =     20.24789  eV     1   --> A              
     e( 29 - 29) =     21.29590  eV     1   --> A              
     e( 30 - 30) =     22.95720  eV     1   --> A              
     e( 31 - 31) =     23.48226  eV     1   --> A              
     e( 32 - 32) =     23.79620  eV     1   --> A              
     e( 33 - 33) =     24.89386  eV     1   --> A              
     e( 34 - 34) =     26.06984  eV     1   --> A              
     e( 35 - 35) =     27.01803  eV     1   --> A              
     e( 36 - 36) =     28.84724  eV     1   --> A              
     e( 37 - 37) =     29.12718  eV     1   --> A              
     e( 38 - 38) =     29.44222  eV     1   --> A              
     e( 39 - 39) =     30.02977  eV     1   --> A              
     e( 40 - 40) =     30.31744  eV     1   --> A              

 **************************************************************************

 **************************************************************************

                    xk=(   0.64821,  -0.05891,   0.05890  )

     Band symmetry, C_1 (1)     point group:

     e(  1 -  1) =    -24.71336  eV     1   --> A              
     e(  2 -  2) =    -24.60436  eV     1   --> A              
     e(  3 -  3) =    -10.02848  eV     1   --> A              
     e(  4 -  4) =     -8.65486  eV     1   --> A              
     e(  5 -  5) =     -8.64468  eV     1   --> A              
     e(  6 -  6) =     -8.11476  eV     1   --> A              
     e(  7 -  7) =     -7.76661  eV     1   --> A              
     e(  8 -  8) =     -7.76344  eV     1   --> A              
     e(  9 -  9) =     -7.68067  eV     1   --> A              
     e( 10 - 10) =      4.18311  eV     1   --> A              
     e( 11 - 11) =      4.85371  eV     1   --> A              
     e( 12 - 12) =      4.86348  eV     1   --> A              
     e( 13 - 13) =      8.16761  eV     1   --> A              
     e( 14 - 14) =     10.88752  eV     1   --> A              
     e( 15 - 15) =     11.10308  eV     1   --> A              
     e( 16 - 16) =     11.32625  eV     1   --> A              
     e( 17 - 17) =     12.65386  eV     1   --> A              
     e( 18 - 18) =     13.01413  eV     1   --> A              
     e( 19 - 19) =     13.24377  eV     1   --> A              
     e( 20 - 20) =     14.04773  eV     1   --> A              
     e( 21 - 21) =     14.09110  eV     1   --> A              
     e( 22 - 22) =     15.94510  eV     1   --> A              
     e( 23 - 23) =     15.98578  eV     1   --> A              
     e( 24 - 24) =     16.07689  eV     1   --> A              
     e( 25 - 25) =     17.47195  eV     1   --> A              
     e( 26 - 26) =     18.12244  eV     1   --> A              
     e( 27 - 27) =     19.23445  eV     1   --> A              
     e( 28 - 28) =     20.32736  eV     1   --> A              
     e( 29 - 29) =     21.02434  eV     1   --> A              
     e( 30 - 30) =     23.31214  eV     1   --> A              
     e( 31 - 31) =     23.48400  eV     1   --> A              
     e( 32 - 32) =     24.03948  eV     1   --> A              
     e( 33 - 33) =     24.59370  eV     1   --> A              
     e( 34 - 34) =     25.42726  eV     1   --> A              
     e( 35 - 35) =     26.71095  eV     1   --> A              
     e( 36 - 36) =     28.94631  eV     1   --> A              
     e( 37 - 37) =     29.47046  eV     1   --> A              
     e( 38 - 38) =     29.52104  eV     1   --> A              
     e( 39 - 39) =     30.05590  eV     1   --> A              
     e( 40 - 40) =     30.38019  eV     1   --> A              

 **************************************************************************

 **************************************************************************

                    xk=(   0.70711,  -0.00001,  -0.00001  )

     point group C_2h (2/m) 
     there are  4 classes
     the character table:

       E     C2    i     s_h  
A_g    1.00  1.00  1.00  1.00
B_g    1.00 -1.00  1.00 -1.00
A_u    1.00  1.00 -1.00 -1.00
B_u    1.00 -1.00 -1.00  1.00

     the symmetry operations in each class and the name of the first element:

     E        1
                                                                 
     C2       2
                                                                 
     i        3
                                                                 
     s_h      4
                                                                 

     Band symmetry, C_2h (2/m)  point group:

     e(  1 -  1) =    -24.71499  eV     1   --> B_u            
     e(  2 -  2) =    -24.60221  eV     1   --> A_g            
     e(  3 -  3) =    -10.04171  eV     1   --> A_g            
     e(  4 -  5) =     -8.66036  eV     2   --> A_u            
     e(  4 -  5) =     -8.66036  eV     2   --> B_u            
     e(  6 -  6) =     -8.12806  eV     1   --> A_g            
     e(  7 -  8) =     -7.74815  eV     2   --> A_g            
     e(  7 -  8) =     -7.74815  eV     2   --> B_g            
     e(  9 -  9) =     -7.66263  eV     1   --> B_u            
     e( 10 - 10) =      4.15923  eV     1   --> B_u            
     e( 11 - 12) =      4.87575  eV     2   --> A_u            
     e( 11 - 12) =      4.87575  eV     2   --> B_u            
     e( 13 - 13) =      8.11666  eV     1   --> A_g            
     e( 14 - 14) =     10.97156  eV     1   --> B_u            
     e( 15 - 15) =     11.05750  eV     1   --> A_g            
     e( 16 - 16) =     11.29696  eV     1   --> A_u            
     e( 17 - 17) =     12.70299  eV     1   --> A_g            
     e( 18 - 19) =     13.17943  eV     2   --> A_u            
     e( 18 - 19) =     13.17943  eV     2   --> B_u            
     e( 20 - 21) =     13.97084  eV     2   --> A_g            
     e( 20 - 21) =     13.97084  eV     2   --> B_g            
     e( 22 - 22) =     16.14137  eV     1   --> B_u            
     e( 23 - 23) =     16.15437  eV     1   --> B_u            
     e( 24 - 24) =     16.15482  eV     1   --> A_u            
     e( 25 - 25) =     17.26585  eV     1   --> B_g            
     e( 26 - 26) =     18.14006  eV     1   --> B_u            
     e( 27 - 27) =     19.00380  eV     1   --> B_g            
     e( 28 - 28) =     20.34225  eV     1   --> A_g            
     e( 29 - 29) =     20.93128  eV     1   --> A_g            
     e( 30 - 30) =     23.48189  eV     1   --> A_g            
     e( 31 - 31) =     23.48225  eV     1   --> B_g            
     e( 32 - 32) =     24.47423  eV     1   --> A_u            
     e( 33 - 33) =     24.47445  eV     1   --> B_u            
     e( 34 - 34) =     24.89916  eV     1   --> A_g            
     e( 35 - 35) =     26.38764  eV     1   --> B_u            
     e( 36 - 36) =     28.88668  eV     1   --> A_g            
     e( 37 - 37) =     29.55768  eV     1   --> B_u            
     e( 38 - 38) =     29.55855  eV     1   --> A_u            
     e( 39 - 39) =     30.18261  eV     1   --> B_u            
     e( 40 - 40) =     30.54437  eV     1   --> A_g            

 **************************************************************************

     BANDS        :     14.12s CPU     32.96s WALL


   This run was terminated on:  23:17:40   1Nov2024            

=------------------------------------------------------------------------------=
   JOB DONE.
=------------------------------------------------------------------------------=
