
     Program PWSCF v.6.6 starts on  1Nov2024 at 21:50:59 

     This program is part of the open-source Quantum ESPRESSO suite
     for quantum simulation of materials; please cite
         "P. Giannozzi et al., J. Phys.:Condens. Matter 21 395502 (2009);
         "P. Giannozzi et al., J. Phys.:Condens. Matter 29 465901 (2017);
          URL http://www.quantum-espresso.org", 
     in publications or presentations arising from this work. More details at
     http://www.quantum-espresso.org/quote

     Parallel version (MPI & OpenMP), running on       4 processor cores
     Number of MPI processes:                 4
     Threads/MPI process:                     1

     MPI processes distributed on     1 nodes
     R & G space division:  proc/nbgrp/npool/nimage =       4
     Fft bands division:     nmany     =       1
     Waiting for input...
     Reading input from standard input
Warning: card  &IONS ignored
Warning: card     ION_DYNAMICS = 'BFGS' ignored
Warning: card  / ignored
Warning: card  &CELL ignored
Warning: card     CELL_FACTOR = 6 ignored
Warning: card  / ignored

     Current dimensions of program PWSCF are:
     Max number of different atomic species (ntypx) = 10
     Max number of k-points (npk) =  40000
     Max angular momentum in pseudopotentials (lmaxx) =  3

     Atomic positions and unit cell read from directory:
     ./out/1.save/
     Atomic positions from file used, from input discarded

     file K.pbe-spn-kjpaw_psl.1.0.0.UPF: wavefunction(s)  3S renormalized
     file O.pbe-n-kjpaw_psl.1.0.0.UPF: wavefunction(s)  2S 2P renormalized

     Subspace diagonalization in iterative solution of the eigenvalue problem:
     one sub-group per band group will be used
     scalapack distributed-memory algorithm (size of sub-group:  2*  2 procs)

     Message from routine setup:
     using ibrav=0 with symmetry is DISCOURAGED, use correct ibrav instead

     Parallelization info
     --------------------
     sticks:   dense  smooth     PW     G-vecs:    dense   smooth      PW
     Min         415     342     94                11183     8269    1238
     Max         417     343     95                11185     8271    1240
     Sum        1663    1369    379                44735    33079    4957



     bravais-lattice index     =            0
     lattice parameter (alat)  =       8.6425  a.u.
     unit-cell volume          =     456.4438 (a.u.)^3
     number of atoms/cell      =            3
     number of atomic types    =            2
     number of electrons       =        24.00
     number of Kohn-Sham states=           40
     kinetic-energy cutoff     =      66.0000  Ry
     charge density cutoff     =     323.0000  Ry
     Exchange-correlation= SLA PW PBX PBC
                           (   1   4   3   4   0   0   0)

     celldm(1)=   8.642472  celldm(2)=   0.000000  celldm(3)=   0.000000
     celldm(4)=   0.000000  celldm(5)=   0.000000  celldm(6)=   0.000000

     crystal axes: (cart. coord. in units of alat)
               a(1) = (   0.707107   0.707107   0.000013 )  
               a(2) = (   0.000013   0.707107   0.707107 )  
               a(3) = (   0.707107   0.000013   0.707107 )  

     reciprocal axes: (cart. coord. in units 2 pi/alat)
               b(1) = (  0.707113  0.707113 -0.707126 )  
               b(2) = ( -0.707126  0.707113  0.707113 )  
               b(3) = (  0.707113 -0.707126  0.707113 )  


     PseudoPot. # 1 for K  read from file:
     /home/haojia/qe_pseudo/K.pbe-spn-kjpaw_psl.1.0.0.UPF
     MD5 check sum: 34cc42130a09071ebe376fd42eb21491
     Pseudo is Projector augmented-wave + core cor, Zval =  9.0
     Generated using "atomic" code by A. Dal Corso v.6.2.2
     Shape of augmentation charge: PSQ
     Using radial grid of 1165 points,  6 beta functions with: 
                l(1) =   0
                l(2) =   0
                l(3) =   1
                l(4) =   1
                l(5) =   2
                l(6) =   2
     Q(r) pseudized with 0 coefficients 


     PseudoPot. # 2 for O  read from file:
     /home/haojia/qe_pseudo/O.pbe-n-kjpaw_psl.1.0.0.UPF
     MD5 check sum: e99d9cef9b487d1ca56f5b95ecd0fd7a
     Pseudo is Projector augmented-wave + core cor, Zval =  6.0
     Generated using "atomic" code by A. Dal Corso v.6.3
     Shape of augmentation charge: PSQ
     Using radial grid of 1095 points,  4 beta functions with: 
                l(1) =   0
                l(2) =   0
                l(3) =   1
                l(4) =   1
     Q(r) pseudized with 0 coefficients 


     atomic species   valence    mass     pseudopotential
        K              9.00    39.09830     K ( 1.00)
        O              6.00    15.99900     O ( 1.00)

     12 Sym. Ops., with inversion, found



   Cartesian axes

     site n.     atom                  positions (alat units)
         1           K   tau(   1) = (   0.3535730   0.3535730   0.3535730  )
         2           O   tau(   2) = (   0.0000000   0.0000000   0.0000000  )
         3           K   tau(   3) = (  -0.3535730  -0.3535730  -0.3535730  )

     number of k points=    43  Gaussian smearing, width (Ry)=  0.0200
                       cart. coord. in units 2pi/alat
        k(    1) = (   0.0000000   0.0000000   0.0000000), wk =   0.0465116
        k(    2) = (   0.0441946   0.0441946  -0.0441954), wk =   0.0465116
        k(    3) = (   0.0883891   0.0883891  -0.0883907), wk =   0.0465116
        k(    4) = (   0.1325837   0.1325837  -0.1325861), wk =   0.0465116
        k(    5) = (   0.1767783   0.1767783  -0.1767814), wk =   0.0465116
        k(    6) = (   0.2209728   0.2209728  -0.2209768), wk =   0.0465116
        k(    7) = (   0.2651674   0.2651674  -0.2651722), wk =   0.0465116
        k(    8) = (   0.3093620   0.3093620  -0.3093675), wk =   0.0465116
        k(    9) = (   0.3535566   0.3535566  -0.3535629), wk =   0.0465116
        k(   10) = (   0.2651658   0.4419457  -0.2651737), wk =   0.0465116
        k(   11) = (   0.1767751   0.5303348  -0.1767846), wk =   0.0465116
        k(   12) = (   0.0883844   0.6187240  -0.0883955), wk =   0.0465116
        k(   13) = (  -0.0000063   0.7071131  -0.0000063), wk =   0.0465116
        k(   14) = (   0.0883828   0.6187224   0.0883828), wk =   0.0465116
        k(   15) = (   0.1767719   0.5303317   0.1767720), wk =   0.0465116
        k(   16) = (   0.2651611   0.4419409   0.2651611), wk =   0.0465116
        k(   17) = (   0.3535502   0.3535502   0.3535502), wk =   0.0465116
        k(   18) = (   0.3240641   0.3240641   0.3240641), wk =   0.0465116
        k(   19) = (   0.2946488   0.2946488   0.2946488), wk =   0.0465116
        k(   20) = (   0.2651627   0.2651627   0.2651627), wk =   0.0465116
        k(   21) = (   0.2356766   0.2356766   0.2356766), wk =   0.0465116
        k(   22) = (   0.2062612   0.2062612   0.2062612), wk =   0.0465116
        k(   23) = (   0.1767751   0.1767751   0.1767751), wk =   0.0465116
        k(   24) = (   0.1472890   0.1472890   0.1472890), wk =   0.0465116
        k(   25) = (   0.1178736   0.1178736   0.1178736), wk =   0.0465116
        k(   26) = (   0.0883876   0.0883876   0.0883876), wk =   0.0465116
        k(   27) = (   0.0589015   0.0589015   0.0589015), wk =   0.0465116
        k(   28) = (   0.0294861   0.0294861   0.0294861), wk =   0.0465116
        k(   29) = (   0.0000000   0.0000000   0.0000000), wk =   0.0465116
        k(   30) = (   0.0441946  -0.0441954   0.0441946), wk =   0.0465116
        k(   31) = (   0.0883891  -0.0883907   0.0883891), wk =   0.0465116
        k(   32) = (   0.1325837  -0.1325861   0.1325837), wk =   0.0465116
        k(   33) = (   0.1767783  -0.1767814   0.1767783), wk =   0.0465116
        k(   34) = (   0.2209728  -0.2209768   0.2209728), wk =   0.0465116
        k(   35) = (   0.2651674  -0.2651722   0.2651674), wk =   0.0465116
        k(   36) = (   0.3093620  -0.3093675   0.3093620), wk =   0.0465116
        k(   37) = (   0.3535566  -0.3535629   0.3535566), wk =   0.0465116
        k(   38) = (   0.4124591  -0.2946604   0.2946530), wk =   0.0465116
        k(   39) = (   0.4714323  -0.2356871   0.2356787), wk =   0.0465116
        k(   40) = (   0.5303348  -0.1767846   0.1767751), wk =   0.0465116
        k(   41) = (   0.5892374  -0.1178821   0.1178715), wk =   0.0465116
        k(   42) = (   0.6482106  -0.0589088   0.0588972), wk =   0.0465116
        k(   43) = (   0.7071131  -0.0000063  -0.0000063), wk =   0.0465116

     Dense  grid:    44735 G-vectors     FFT dimensions: (  50,  50,  50)

     Smooth grid:    33079 G-vectors     FFT dimensions: (  45,  45,  45)

     Estimated max dynamical RAM per process >      40.34 MB

     Estimated total dynamical RAM >     161.38 MB

     Check: negative core charge=   -0.000002

     The potential is recalculated from file :
     ./out/1.save/charge-density

     Starting wfcs are   20 randomized atomic wfcs +   20 random wfcs
     Checking if some PAW data can be deallocated... 

     Band Structure Calculation
     Davidson diagonalization with overlap

     ethr =  4.17E-09,  avg # of iterations = 29.5

     total cpu time spent up to now is       59.4 secs

     End of band structure calculation

          k = 0.0000 0.0000 0.0000 (  4111 PWs)   bands (ev):

   -24.8385 -24.4963  -9.4650  -8.4846  -8.4845  -8.4845  -7.8507  -7.8506
    -7.8506   4.4295   4.4295   4.4295   6.6155  10.3127  10.3127  11.7000
    11.7004  11.7004  15.8538  15.8539  15.8539  17.4105  17.4105  17.4964
    17.4968  17.4968  18.2284  21.1977  21.1977  21.1977  23.8638  23.8638
    25.3377  25.3384  25.3384  26.0119  28.3133  28.3133  28.3140  31.5691

          k = 0.0442 0.0442-0.0442 (  4135 PWs)   bands (ev):

   -24.8350 -24.4995  -9.4797  -8.4822  -8.4798  -8.4797  -7.8581  -7.8581
    -7.8419   4.4049   4.4392   4.4392   6.7207  10.3343  10.3343  11.6293
    11.7355  11.7359  15.8142  15.8143  15.8379  16.7964  16.7965  17.2881
    18.1050  18.1052  18.3065  21.1840  21.1840  21.3181  23.8159  23.8159
    25.2973  25.3188  25.3195  26.1747  28.3550  28.4449  28.4455  31.6754

          k = 0.0884 0.0884-0.0884 (  4134 PWs)   bands (ev):

   -24.8247 -24.5087  -9.5213  -8.4724  -8.4653  -8.4652  -7.8799  -7.8799
    -7.8206   4.3529   4.4669   4.4669   7.0050  10.4000  10.4001  11.4471
    11.8385  11.8389  15.6961  15.6962  15.7558  16.1525  16.1526  16.7746
    18.5278  18.7211  18.7215  21.1551  21.1552  21.6155  23.7323  23.7324
    25.1350  25.2449  25.2455  26.6951  28.4800  28.7731  28.7737  31.9223

          k = 0.1326 0.1326-0.1326 (  4131 PWs)   bands (ev):

   -24.8081 -24.5237  -9.5828  -8.4504  -8.4413  -8.4412  -7.9148  -7.9148
    -7.7973   4.3110   4.5087   4.5087   7.4014  10.5117  10.5119  11.2242
    11.9992  11.9997  15.4897  15.4902  15.4909  15.5449  15.5458  16.2307
    18.8089  19.2568  19.2574  21.1543  21.1545  22.0435  23.7156  23.7158
    24.8595  25.1019  25.1024  27.5243  28.6882  29.1340  29.1347  31.8485

          k = 0.1768 0.1768-0.1768 (  4140 PWs)   bands (ev):

   -24.7858 -24.5441  -9.6537  -8.4150  -8.4082  -8.4081  -7.9608  -7.9608
    -7.7816   4.3000   4.5584   4.5585   7.8386  10.6689  10.6692  11.0315
    12.2038  12.2044  14.9341  14.9343  14.9667  15.2607  15.2611  15.8513
    19.0657  19.6436  19.6443  21.2519  21.2524  22.6321  23.8235  23.8235
    24.5175  24.9026  24.9030  28.5129  28.9795  29.3450  29.3456  31.0513

          k = 0.2210 0.2210-0.2210 (  4146 PWs)   bands (ev):

   -24.7590 -24.5691  -9.7225  -8.3706  -8.3666  -8.3665  -8.0153  -8.0152
    -7.7777   4.3194   4.6087   4.6088   8.2487  10.8646  10.8649  10.9141
    12.4352  12.4358  14.3890  14.3891  14.4040  14.9777  14.9781  15.5143
    19.2756  19.8483  19.8492  21.4772  21.4778  23.3611  24.0606  24.0607
    24.1844  24.6737  24.6738  29.1073  29.2907  29.2910  29.3539  30.6154

          k = 0.2652 0.2652-0.2652 (  4158 PWs)   bands (ev):

   -24.7286 -24.5978  -9.7791  -8.3254  -8.3174  -8.3174  -8.0754  -8.0753
    -7.7841   4.3546   4.6518   4.6519   8.5748  10.8721  11.0777  11.0782
    12.6715  12.6721  13.9124  13.9125  13.9920  14.6999  14.7002  15.1491
    19.4493  19.9280  19.9288  21.7539  21.7547  23.6593  24.3816  24.3819
    24.4435  24.4527  24.4527  28.4420  28.9865  28.9867  29.8109  31.1645

          k = 0.3094 0.3094-0.3094 (  4146 PWs)   bands (ev):

   -24.6960 -24.6293  -9.8160  -8.2907  -8.2620  -8.2620  -8.1380  -8.1379
    -7.7940   4.3864   4.6808   4.6809   8.7822  10.8642  11.2613  11.2619
    12.8795  12.8799  13.5484  13.5490  13.8041  14.4809  14.4811  14.8140
    19.5774  19.9538  19.9546  21.9755  21.9763  23.4514  24.2731  24.2733
    24.6974  24.6981  25.3791  27.4569  28.6121  28.6129  30.3491  30.8002

          k = 0.3536 0.3536-0.3536 (  4140 PWs)   bands (ev):

   -24.6628 -24.6621  -9.8289  -8.2775  -8.2090  -8.2087  -8.1939  -8.1935
    -7.7987   4.3990   4.6910   4.6911   8.8537  10.8615  11.3384  11.3390
    12.9835  12.9836  13.3894  13.3906  13.7744  14.3934  14.3936  14.6621
    19.6266  19.9597  19.9604  22.0609  22.0616  23.3614  24.2052  24.2055
    24.8333  24.8341  26.2443  26.5824  28.4399  28.4409  30.6872  30.6892

          k = 0.2652 0.4419-0.2652 (  4138 PWs)   bands (ev):

   -24.6837 -24.6401  -9.8629  -8.4376  -8.3766  -8.1719  -8.0268  -8.0086
    -7.8170   4.4179   4.6626   4.7182   8.6965  10.8248  11.4190  11.4271
    12.5520  12.7716  13.3778  13.9402  13.9933  14.4075  14.6012  14.9871
    19.0107  19.4375  20.3006  21.9185  21.9481  22.8437  23.4891  23.9576
    25.3603  25.9139  26.1991  27.2750  28.4991  28.7932  29.8874  30.2447

          k = 0.1768 0.5303-0.1768 (  4143 PWs)   bands (ev):

   -24.7006 -24.6205  -9.9402  -8.5801  -8.5255  -8.0914  -7.8800  -7.8507
    -7.8122   4.3417   4.7160   4.7838   8.4504  10.6673  11.4081  11.4881
    12.4380  12.7588  13.1413  14.2421  14.3546  14.9544  15.0972  15.5671
    18.3983  18.5037  20.2245  20.7322  21.6169  22.6792  23.4460  23.8646
    25.2309  26.2661  26.9515  28.4253  28.7460  29.3337  29.4581  30.2200

          k = 0.0884 0.6187-0.0884 (  4135 PWs)   bands (ev):

   -24.7113 -24.6070 -10.0126  -8.6464  -8.6253  -8.1015  -7.7872  -7.7824
    -7.7030   4.2120   4.8276   4.8489   8.2250  10.8059  11.1594  11.3612
    12.6547  12.8566  13.2469  14.1095  14.2126  15.7358  15.8017  15.9909
    17.6805  18.1263  19.5070  20.2925  21.1439  23.1385  23.4852  23.8700
    24.7287  25.7656  26.9177  28.9981  29.3566  29.4836  29.8031  30.4637

          k =-0.0000 0.7071-0.0000 (  4136 PWs)   bands (ev):

   -24.7150 -24.6022 -10.0417  -8.6604  -8.6603  -8.1281  -7.7482  -7.7481
    -7.6626   4.1592   4.8757   4.8757   8.1167  10.9716  11.0575  11.2970
    12.7030  13.1794  13.1795  13.9708  13.9709  16.1414  16.1544  16.1548
    17.2658  18.1401  19.0038  20.3423  20.9313  23.4819  23.4823  24.4742
    24.4744  24.8992  26.3876  28.8867  29.5577  29.5586  30.1826  30.5444

          k = 0.0884 0.6187 0.0884 (  4135 PWs)   bands (ev):

   -24.7113 -24.6070 -10.0126  -8.6465  -8.6252  -8.1015  -7.7872  -7.7823
    -7.7030   4.2120   4.8276   4.8489   8.2251  10.8060  11.1595  11.3612
    12.6547  12.8568  13.2466  14.1094  14.2128  15.7364  15.8019  15.9900
    17.6805  18.1262  19.5069  20.2924  21.1442  23.1379  23.4855  23.8707
    24.7285  25.7650  26.9178  28.9980  29.3563  29.4844  29.8030  30.4638

          k = 0.1768 0.5303 0.1768 (  4143 PWs)   bands (ev):

   -24.7006 -24.6205  -9.9401  -8.5802  -8.5255  -8.0912  -7.8800  -7.8509
    -7.8123   4.3416   4.7159   4.7837   8.4505  10.6674  11.4084  11.4881
    12.4382  12.7586  13.1411  14.2417  14.3550  14.9551  15.0971  15.5660
    18.3981  18.5037  20.2247  20.7320  21.6169  22.6790  23.4464  23.8646
    25.2309  26.2658  26.9516  28.4255  28.7453  29.3344  29.4581  30.2208

          k = 0.2652 0.4419 0.2652 (  4138 PWs)   bands (ev):

   -24.6837 -24.6401  -9.8628  -8.4377  -8.3765  -8.1718  -8.0268  -8.0086
    -7.8172   4.4178   4.6625   4.7182   8.6968  10.8250  11.4193  11.4272
    12.5522  12.7715  13.3777  13.9406  13.9936  14.4073  14.6008  14.9859
    19.0107  19.4374  20.3006  21.9184  21.9484  22.8435  23.4893  23.9565
    25.3606  25.9143  26.1992  27.2757  28.4998  28.7941  29.8859  30.2448

          k = 0.3536 0.3536 0.3536 (  4140 PWs)   bands (ev):

   -24.6629 -24.6620  -9.8287  -8.2776  -8.2086  -8.2086  -8.1939  -8.1939
    -7.7990   4.3989   4.6910   4.6910   8.8540  10.8618  11.3389  11.3389
    12.9837  12.9837  13.3904  13.3904  13.7746  14.3930  14.3930  14.6606
    19.6272  19.9596  19.9596  22.0618  22.0618  23.3598  24.2043  24.2043
    24.8349  24.8349  26.2445  26.5831  28.4415  28.4415  30.6867  30.6867

          k = 0.3241 0.3241 0.3241 (  4140 PWs)   bands (ev):

   -24.6849 -24.6402  -9.8230  -8.2836  -8.2425  -8.2425  -8.1588  -8.1588
    -7.7967   4.3932   4.6864   4.6864   8.8220  10.8631  11.3033  11.3033
    12.9328  12.9328  13.4659  13.4659  13.7844  14.4332  14.4332  14.7321
    19.6047  19.9572  19.9572  22.0230  22.0230  23.4009  24.2353  24.2353
    24.7717  24.7717  25.7089  27.1225  28.5216  28.5216  30.5454  30.7365

          k = 0.2946 0.2946 0.2946 (  4158 PWs)   bands (ev):

   -24.7070 -24.6186  -9.8061  -8.3004  -8.2810  -8.2810  -8.1170  -8.1170
    -7.7911   4.3772   4.6730   4.6730   8.7279  10.8658  11.2083  11.2083
    12.8170  12.8170  13.6533  13.6533  13.8427  14.5427  14.5427  14.9131
    19.5421  19.9484  19.9484  21.9143  21.9143  23.5139  24.3210  24.3210
    24.6065  24.6065  25.0538  27.7921  28.7288  28.7288  30.1616  30.8904

          k = 0.2652 0.2652 0.2652 (  4158 PWs)   bands (ev):

   -24.7286 -24.5978  -9.7790  -8.3255  -8.3173  -8.3173  -8.0753  -8.0753
    -7.7843   4.3545   4.6518   4.6518   8.5750  10.8721  11.0781  11.0781
    12.6722  12.6722  13.9125  13.9125  13.9923  14.6998  14.6998  15.1477
    19.4496  19.9280  19.9280  21.7546  21.7546  23.6579  24.3828  24.3828
    24.4440  24.4521  24.4521  28.4423  28.9873  28.9873  29.8113  31.1640

          k = 0.2357 0.2357 0.2357 (  4152 PWs)   bands (ev):

   -24.7492 -24.5783  -9.7430  -8.3551  -8.3509  -8.3509  -8.0347  -8.0347
    -7.7791   4.3302   4.6242   4.6242   8.3690  10.8932  10.9355  10.9355
    12.5153  12.5153  14.2212  14.2212  14.2447  14.8825  14.8825  15.3937
    19.3374  19.8846  19.8846  21.5697  21.5697  23.5817  24.1304  24.1635
    24.1635  24.5961  24.5961  28.9809  29.2124  29.2124  29.4973  30.8124

          k = 0.2063 0.2063 0.2063 (  4140 PWs)   bands (ev):

   -24.7684 -24.5603  -9.7004  -8.3859  -8.3813  -8.3813  -7.9963  -7.9963
    -7.7778   4.3102   4.5924   4.5924   8.1193  10.7963  10.7963  10.9436
    12.3571  12.3571  14.5644  14.5644  14.5816  15.0736  15.0736  15.6282
    19.2104  19.7983  19.7983  21.3915  21.3915  23.1122  23.9699  23.9699
    24.2832  24.7509  24.7509  29.0455  29.2206  29.3409  29.3409  30.6154

          k = 0.1768 0.1768 0.1768 (  4140 PWs)   bands (ev):

   -24.7858 -24.5441  -9.6536  -8.4150  -8.4081  -8.4081  -7.9608  -7.9608
    -7.7817   4.2999   4.5584   4.5584   7.8387  10.6691  10.6691  11.0313
    12.2044  12.2044  14.9341  14.9341  14.9672  15.2609  15.2609  15.8500
    19.0657  19.6437  19.6437  21.2522  21.2522  22.6327  23.8244  23.8244
    24.5164  24.9025  24.9025  28.5127  28.9801  29.3453  29.3453  31.0513

          k = 0.1473 0.1473 0.1473 (  4128 PWs)   bands (ev):

   -24.8013 -24.5299  -9.6058  -8.4400  -8.4312  -8.4312  -7.9290  -7.9290
    -7.7910   4.3035   4.5247   4.5247   7.5459  10.5593  10.5593  11.1536
    12.0637  12.0637  15.3206  15.3206  15.3387  15.4366  15.4366  16.0870
    18.8995  19.4055  19.4055  21.1726  21.1726  22.2207  23.7373  23.7373
    24.7495  25.0407  25.0407  27.8463  28.7765  29.2289  29.2289  31.6219

          k = 0.1179 0.1179 0.1179 (  4125 PWs)   bands (ev):

   -24.8143 -24.5181  -9.5607  -8.4593  -8.4502  -8.4502  -7.9018  -7.9018
    -7.8047   4.3220   4.4935   4.4935   7.2616  10.4695  10.4695  11.2980
    11.9405  11.9405  15.5739  15.5739  15.6101  15.7366  15.7366  16.3953
    18.7149  19.0917  19.0917  21.1474  21.1474  21.8856  23.7096  23.7096
    24.9601  25.1570  25.1570  27.2213  28.6102  29.0223  29.0223  31.9722

          k = 0.0884 0.0884 0.0884 (  4134 PWs)   bands (ev):

   -24.8247 -24.5087  -9.5212  -8.4725  -8.4652  -8.4652  -7.8799  -7.8799
    -7.8206   4.3529   4.4669   4.4669   7.0051  10.4001  10.4001  11.4469
    11.8389  11.8389  15.6961  15.6961  15.7559  16.1527  16.1527  16.7740
    18.5276  18.7212  18.7212  21.1552  21.1552  21.6159  23.7327  23.7327
    25.1341  25.2453  25.2453  26.6951  28.4806  28.7732  28.7732  31.9223

          k = 0.0589 0.0589 0.0589 (  4141 PWs)   bands (ev):

   -24.8323 -24.5019  -9.4908  -8.4802  -8.4759  -8.4759  -7.8638  -7.8638
    -7.8358   4.3886   4.4466   4.4466   6.7985  10.3512  10.3512  11.5776
    11.7630  11.7630  15.7836  15.7836  15.8217  16.5805  16.5805  17.1389
    18.3156  18.3156  18.3670  21.1747  21.1747  21.4022  23.7868  23.7868
    25.2573  25.3021  25.3021  26.3079  28.3880  28.5391  28.5391  31.7508

          k = 0.0295 0.0295 0.0295 (  4135 PWs)   bands (ev):

   -24.8370 -24.4977  -9.4716  -8.4837  -8.4824  -8.4824  -7.8539  -7.8539
    -7.8467   4.4180   4.4339   4.4339   6.6631  10.3223  10.3223  11.6677
    11.7163  11.7163  15.8362  15.8362  15.8474  17.0135  17.0135  17.4012
    17.8915  17.8915  18.2627  21.1913  21.1913  21.2534  23.8409  23.8409
    25.3212  25.3305  25.3305  26.0825  28.3325  28.3734  28.3734  31.6176

          k = 0.0000 0.0000 0.0000 (  4111 PWs)   bands (ev):

   -24.8385 -24.4963  -9.4650  -8.4846  -8.4845  -8.4845  -7.8507  -7.8506
    -7.8506   4.4295   4.4295   4.4295   6.6155  10.3127  10.3127  11.7000
    11.7004  11.7004  15.8538  15.8539  15.8539  17.4105  17.4105  17.4964
    17.4968  17.4968  18.2284  21.1977  21.1977  21.1977  23.8638  23.8638
    25.3377  25.3384  25.3384  26.0119  28.3133  28.3133  28.3140  31.5691

          k = 0.0442-0.0442 0.0442 (  4135 PWs)   bands (ev):

   -24.8350 -24.4995  -9.4797  -8.4822  -8.4798  -8.4797  -7.8581  -7.8581
    -7.8419   4.4049   4.4392   4.4392   6.7207  10.3343  10.3343  11.6293
    11.7355  11.7359  15.8142  15.8143  15.8379  16.7964  16.7965  17.2881
    18.1050  18.1052  18.3065  21.1840  21.1840  21.3181  23.8159  23.8159
    25.2973  25.3188  25.3195  26.1747  28.3550  28.4449  28.4455  31.6754

          k = 0.0884-0.0884 0.0884 (  4134 PWs)   bands (ev):

   -24.8247 -24.5087  -9.5213  -8.4724  -8.4653  -8.4652  -7.8799  -7.8799
    -7.8206   4.3529   4.4669   4.4669   7.0050  10.4000  10.4001  11.4471
    11.8385  11.8389  15.6961  15.6962  15.7558  16.1525  16.1526  16.7746
    18.5278  18.7211  18.7215  21.1551  21.1552  21.6155  23.7323  23.7324
    25.1350  25.2449  25.2455  26.6951  28.4800  28.7731  28.7737  31.9223

          k = 0.1326-0.1326 0.1326 (  4131 PWs)   bands (ev):

   -24.8081 -24.5237  -9.5828  -8.4504  -8.4413  -8.4412  -7.9148  -7.9148
    -7.7973   4.3110   4.5087   4.5087   7.4014  10.5117  10.5119  11.2242
    11.9992  11.9997  15.4897  15.4902  15.4909  15.5449  15.5458  16.2307
    18.8089  19.2568  19.2574  21.1543  21.1545  22.0435  23.7156  23.7158
    24.8595  25.1019  25.1024  27.5243  28.6882  29.1340  29.1347  31.8485

          k = 0.1768-0.1768 0.1768 (  4140 PWs)   bands (ev):

   -24.7858 -24.5441  -9.6537  -8.4150  -8.4082  -8.4081  -7.9608  -7.9608
    -7.7816   4.3000   4.5584   4.5585   7.8386  10.6689  10.6692  11.0315
    12.2038  12.2044  14.9341  14.9343  14.9667  15.2607  15.2611  15.8513
    19.0657  19.6436  19.6443  21.2519  21.2524  22.6321  23.8235  23.8235
    24.5175  24.9026  24.9030  28.5129  28.9795  29.3450  29.3456  31.0513

          k = 0.2210-0.2210 0.2210 (  4146 PWs)   bands (ev):

   -24.7590 -24.5691  -9.7225  -8.3706  -8.3666  -8.3665  -8.0153  -8.0152
    -7.7777   4.3194   4.6087   4.6088   8.2487  10.8646  10.8649  10.9141
    12.4352  12.4358  14.3890  14.3891  14.4040  14.9777  14.9781  15.5143
    19.2756  19.8483  19.8492  21.4772  21.4778  23.3611  24.0606  24.0607
    24.1844  24.6737  24.6738  29.1073  29.2907  29.2910  29.3539  30.6154

          k = 0.2652-0.2652 0.2652 (  4158 PWs)   bands (ev):

   -24.7286 -24.5978  -9.7791  -8.3254  -8.3174  -8.3174  -8.0754  -8.0753
    -7.7841   4.3546   4.6518   4.6519   8.5748  10.8721  11.0777  11.0782
    12.6715  12.6721  13.9124  13.9125  13.9920  14.6999  14.7002  15.1491
    19.4493  19.9280  19.9288  21.7539  21.7547  23.6593  24.3816  24.3819
    24.4435  24.4527  24.4527  28.4420  28.9865  28.9867  29.8109  31.1645

          k = 0.3094-0.3094 0.3094 (  4146 PWs)   bands (ev):

   -24.6960 -24.6293  -9.8160  -8.2907  -8.2620  -8.2620  -8.1380  -8.1379
    -7.7940   4.3864   4.6808   4.6809   8.7822  10.8642  11.2613  11.2619
    12.8795  12.8799  13.5484  13.5490  13.8041  14.4809  14.4811  14.8140
    19.5774  19.9538  19.9546  21.9755  21.9763  23.4514  24.2731  24.2733
    24.6974  24.6981  25.3791  27.4569  28.6121  28.6129  30.3491  30.8002

          k = 0.3536-0.3536 0.3536 (  4140 PWs)   bands (ev):

   -24.6628 -24.6621  -9.8289  -8.2775  -8.2090  -8.2087  -8.1939  -8.1935
    -7.7987   4.3990   4.6910   4.6911   8.8537  10.8615  11.3384  11.3390
    12.9835  12.9836  13.3894  13.3906  13.7744  14.3934  14.3936  14.6621
    19.6266  19.9597  19.9604  22.0609  22.0616  23.3614  24.2052  24.2055
    24.8333  24.8341  26.2443  26.5824  28.4399  28.4409  30.6872  30.6892

          k = 0.4125-0.2947 0.2947 (  4131 PWs)   bands (ev):

   -24.6769 -24.6475  -9.8446  -8.3764  -8.3198  -8.1978  -8.0831  -8.0769
    -7.8075   4.4116   4.6742   4.7035   8.7742  10.8673  11.3622  11.3820
    12.7074  12.8581  13.4306  13.7447  13.8122  14.3950  14.5015  14.8166
    19.2515  19.7023  20.2189  22.0045  22.0555  23.0978  23.7100  23.9388
    25.2124  25.6081  26.0686  26.9559  28.4459  28.6036  30.2849  30.4285

          k = 0.4714-0.2357 0.2357 (  4126 PWs)   bands (ev):

   -24.6899 -24.6331  -9.8862  -8.4931  -8.4304  -8.1413  -7.9736  -7.9439
    -7.8266   4.4105   4.6632   4.7375   8.6129  10.7573  11.4687  11.4718
    12.4425  12.7266  13.2860  14.1074  14.1895  14.4806  14.7283  15.1829
    18.7836  19.1337  20.3051  21.6119  21.8712  22.6710  23.4094  23.9745
    25.4037  25.9959  26.5530  27.6583  28.6388  29.0159  29.4709  30.1244

          k = 0.5303-0.1768 0.1768 (  4143 PWs)   bands (ev):

   -24.7006 -24.6205  -9.9402  -8.5801  -8.5255  -8.0914  -7.8800  -7.8507
    -7.8122   4.3417   4.7160   4.7838   8.4504  10.6673  11.4081  11.4881
    12.4380  12.7588  13.1413  14.2421  14.3546  14.9544  15.0972  15.5671
    18.3983  18.5037  20.2245  20.7322  21.6169  22.6792  23.4460  23.8646
    25.2309  26.2661  26.9515  28.4253  28.7460  29.3337  29.4581  30.2200

          k = 0.5892-0.1179 0.1179 (  4140 PWs)   bands (ev):

   -24.7085 -24.6106  -9.9918  -8.6321  -8.5986  -8.0893  -7.8108  -7.8084
    -7.7338   4.2503   4.7938   4.8299   8.2952  10.7288  11.2352  11.4057
    12.6895  12.6910  13.2107  14.1658  14.3210  15.4921  15.5754  15.8754
    17.9283  18.1670  19.8622  20.2479  21.2959  22.9572  23.4823  23.7962
    24.8939  26.0698  27.0180  28.8472  29.1272  29.4422  30.0298  30.3174

          k = 0.6482-0.0589 0.0589 (  4138 PWs)   bands (ev):

   -24.7134 -24.6044 -10.0285  -8.6549  -8.6447  -8.1148  -7.7666  -7.7634
    -7.6807   4.1831   4.8537   4.8635   8.1676  10.8875  11.1031  11.3262
    12.6539  13.0141  13.2438  14.0477  14.0911  15.9451  15.9858  16.0769
    17.4720  18.1224  19.2344  20.3274  21.0243  23.3121  23.4840  24.0395
    24.5937  25.4273  26.7109  28.9463  29.4705  29.5210  30.0559  30.3802

          k = 0.7071-0.0000-0.0000 (  4136 PWs)   bands (ev):

   -24.7150 -24.6022 -10.0417  -8.6604  -8.6603  -8.1281  -7.7482  -7.7481
    -7.6626   4.1592   4.8757   4.8757   8.1167  10.9716  11.0575  11.2970
    12.7030  13.1794  13.1795  13.9708  13.9709  16.1414  16.1544  16.1548
    17.2658  18.1401  19.0038  20.3423  20.9313  23.4819  23.4823  24.4742
    24.4744  24.8992  26.3876  28.8867  29.5577  29.5586  30.1826  30.5444

     the Fermi energy is     5.7691 ev
     (compare with:     5.8620 eV, computed in scf)

     Writing output data file ./out/1.save/

     init_run     :      0.71s CPU      1.36s WALL (       1 calls)
     electrons    :     40.54s CPU     55.02s WALL (       1 calls)

     Called by init_run:
     wfcinit      :      0.00s CPU      0.10s WALL (       1 calls)
     potinit      :      0.13s CPU      0.59s WALL (       1 calls)
     hinit0       :      0.42s CPU      0.46s WALL (       1 calls)

     Called by electrons:
     c_bands      :     40.54s CPU     55.01s WALL (       1 calls)
     v_of_rho     :      0.02s CPU      0.02s WALL (       1 calls)
     newd         :      0.05s CPU      0.09s WALL (       1 calls)
     PAW_pot      :      0.10s CPU      0.16s WALL (       1 calls)

     Called by c_bands:
     init_us_2    :      0.01s CPU      0.02s WALL (      43 calls)
     cegterg      :     34.08s CPU     36.66s WALL (      81 calls)

     Called by *egterg:
     cdiaghg      :      3.15s CPU      3.78s WALL (    1311 calls)
     h_psi        :     28.39s CPU     30.12s WALL (    1392 calls)
     s_psi        :      0.30s CPU      0.31s WALL (    1392 calls)
     g_psi        :      0.13s CPU      0.14s WALL (    1268 calls)

     Called by h_psi:
     h_psi:calbec :      0.41s CPU      0.44s WALL (    1392 calls)
     vloc_psi     :     27.59s CPU     29.26s WALL (    1392 calls)
     add_vuspsi   :      0.33s CPU      0.35s WALL (    1392 calls)

     General routines
     calbec       :      0.40s CPU      0.44s WALL (    1392 calls)
     fft          :      0.02s CPU      0.02s WALL (      13 calls)
     ffts         :      0.00s CPU      0.00s WALL (       1 calls)
     fftw         :     26.33s CPU     27.92s WALL (   64820 calls)
     interpolate  :      0.00s CPU      0.00s WALL (       1 calls)
     davcio       :      0.02s CPU      1.07s WALL (      86 calls)

     Parallel routines
     fft_scatt_xy :      2.24s CPU      2.37s WALL (   64834 calls)
     fft_scatt_yz :      3.72s CPU      4.01s WALL (   64834 calls)

     PWSCF        :     43.61s CPU   1m38.43s WALL


   This run was terminated on:  21:52:37   1Nov2024            

=------------------------------------------------------------------------------=
   JOB DONE.
=------------------------------------------------------------------------------=
