
     Program BANDS v.7.1 starts on  3Nov2024 at 11:34:31 

     This program is part of the open-source Quantum ESPRESSO suite
     for quantum simulation of materials; please cite
         "P. Giannozzi et al., J. Phys.:Condens. Matter 21 395502 (2009);
         "P. Giannozzi et al., J. Phys.:Condens. Matter 29 465901 (2017);
         "P. Giannozzi et al., J. Chem. Phys. 152 154105 (2020);
          URL http://www.quantum-espresso.org", 
     in publications or presentations arising from this work. More details at
     http://www.quantum-espresso.org/quote

     Parallel version (MPI & OpenMP), running on       4 processor cores
     Number of MPI processes:                 4
     Threads/MPI process:                     1

     MPI processes distributed on     1 nodes
     R & G space division:  proc/nbgrp/npool/nimage =       4
     143185 MiB available memory on the printing compute node when the environment starts


     Reading xml data from directory:

     ./out/1.save/

     WARNING: libxc functional with ID  497 depends
      on external parameters: check the user_guide of
      QE if you need to modify them or to check their
      default values.

     IMPORTANT: XC functional enforced from input :
     Exchange-correlation= R2SCAN
                           (   0   0   0   0   0 497 498)
     Any further DFT definition will be discarded
     Please, verify this is what you really want


     Parallelization info
     --------------------
     sticks:   dense  smooth     PW     G-vecs:    dense   smooth      PW
     Min         601     601    165                19571    19571    2797
     Max         602     602    166                19575    19575    2799
     Sum        2407    2407    661                78295    78295   11191

     Using Slab Decomposition

     Reading meta-gga kinetic term
     Reading collected, re-writing distributed wavefunctions
     high-symmetry point:  0.0000 0.0000 0.0000   x coordinate   0.0000
     high-symmetry point:  0.3536 0.3536-0.3537   x coordinate   0.6125
     high-symmetry point: -0.0001 0.7072-0.0001   x coordinate   1.2251
     high-symmetry point:  0.3535 0.3535 0.3535   x coordinate   1.8376
     high-symmetry point:  0.0000 0.0000 0.0000   x coordinate   2.4499
     high-symmetry point:  0.3536-0.3537 0.3536   x coordinate   3.0624
     high-symmetry point:  0.7072-0.0001-0.0001   x coordinate   3.6750

     Plottable bands (eV) written to file bands.dat.gnu
     Bands written to file bands.dat

 **************************************************************************

                    xk=(   0.00000,   0.00000,   0.00000  )

     point group D_3d (-3m) 
     there are  6 classes
     the character table:

       E     2C3   3C2'  i     2S6   3s_d 
A_1g   1.00  1.00  1.00  1.00  1.00  1.00
A_2g   1.00  1.00 -1.00  1.00  1.00 -1.00
E_g    2.00 -1.00  0.00  2.00 -1.00  0.00
A_1u   1.00  1.00  1.00 -1.00 -1.00 -1.00
A_2u   1.00  1.00 -1.00 -1.00 -1.00  1.00
E_u    2.00 -1.00  0.00 -2.00  1.00  0.00

     the symmetry operations in each class and the name of the first element:

     E        1
                                                                 
     2C3      5    6
                                                                 
     3C2'     2    4    3
                                                                 
     i        7
                                                                 
     2S6     11   12
                                                                 
     3s_d     8   10    9
                                                                 

     Band symmetry, D_3d (-3m)  point group:

     e(  1 -  1) =    -48.94405  eV     1   --> A_1g L_1       
     e(  2 -  2) =    -48.86731  eV     1   --> A_2u L_2'      
     e(  3 -  3) =    -19.24232  eV     1   --> A_1g L_1       
     e(  4 -  5) =    -19.24199  eV     2   --> E_g  L_3       
     e(  6 -  8) =    -19.04335  eV     3   --> A_2u L_2'      
     e(  6 -  8) =    -19.04335  eV     3   --> E_u  L_3'      
     e(  9 -  9) =    -12.26409  eV     1   --> A_1g L_1       
     e( 10 - 10) =      3.52815  eV     1   --> A_2u L_2'      
     e( 11 - 12) =      3.52926  eV     2   --> E_u  L_3'      
     e( 13 - 13) =      6.05383  eV     1   --> A_1g L_1       
     e( 14 - 14) =     17.60282  eV     1   --> A_1g L_1       
     e( 15 - 16) =     17.61332  eV     2   --> E_g  L_3       
     e( 17 - 17) =     18.30111  eV     1   --> A_2u L_2'      
     e( 18 - 19) =     18.30700  eV     2   --> E_u  L_3'      
     e( 20 - 21) =     18.68505  eV     2   --> E_g  L_3       
     e( 22 - 22) =     22.69426  eV     1   --> A_1g L_1       
     e( 23 - 23) =     27.56625  eV     1   --> A_2u L_2'      
     e( 24 - 24) =     27.94379  eV     1   --> A_2u L_2'      
     e( 25 - 26) =     27.95304  eV     2   --> E_u  L_3'      
     e( 27 - 28) =     36.16279  eV     2   --> E_g  L_3       
     e( 29 - 29) =     36.16632  eV     1   --> A_1g L_1       
     e( 30 - 31) =     38.14455  eV     2   --> E_g  L_3       
     e( 32 - 33) =     39.63087  eV     2   --> E_u  L_3'      
     e( 34 - 34) =     39.64901  eV     1   --> A_1u L_1'      
     e( 35 - 35) =     42.78249  eV     1   --> A_1g L_1       
     e( 36 - 37) =     47.19165  eV     2   --> E_u  L_3'      
     e( 38 - 38) =     47.48439  eV     1   --> A_2u L_2'      
     e( 39 - 40) =     47.50700  eV     2   --> E_u  L_3'      

 **************************************************************************

 **************************************************************************

                    xk=(   0.04420,   0.04420,  -0.04422  )

     point group C_s (m)    
     there are  2 classes
     the character table:

       E     s    
A'     1.00  1.00
A''    1.00 -1.00

     the symmetry operations in each class and the name of the first element:

     E        1
                                                                 
     s        2
                                                                 

     Band symmetry, C_s (m)     point group:

     e(  1 -  1) =    -48.94327  eV     1   --> A'             
     e(  2 -  2) =    -48.86801  eV     1   --> A'             
     e(  3 -  3) =    -19.24124  eV     1   --> A'             
     e(  4 -  4) =    -19.24057  eV     1   --> A'             
     e(  5 -  5) =    -19.24031  eV     1   --> A''            
     e(  6 -  6) =    -19.04777  eV     1   --> A'             
     e(  7 -  8) =    -19.04546  eV     2   --> A'             
     e(  7 -  8) =    -19.04546  eV     2   --> A''            
     e(  9 -  9) =    -12.25597  eV     1   --> A'             
     e( 10 - 10) =      3.42848  eV     1   --> A'             
     e( 11 - 11) =      3.52703  eV     1   --> A'             
     e( 12 - 12) =      3.52800  eV     1   --> A''            
     e( 13 - 13) =      6.20862  eV     1   --> A'             
     e( 14 - 14) =     17.08892  eV     1   --> A'             
     e( 15 - 15) =     17.42881  eV     1   --> A'             
     e( 16 - 16) =     17.43619  eV     1   --> A''            
     e( 17 - 17) =     18.03665  eV     1   --> A'             
     e( 18 - 18) =     18.04187  eV     1   --> A''            
     e( 19 - 19) =     18.54851  eV     1   --> A'             
     e( 20 - 20) =     19.24190  eV     1   --> A'             
     e( 21 - 21) =     19.24405  eV     1   --> A''            
     e( 22 - 22) =     23.01214  eV     1   --> A'             
     e( 23 - 23) =     27.73224  eV     1   --> A'             
     e( 24 - 24) =     27.81457  eV     1   --> A'             
     e( 25 - 25) =     28.00339  eV     1   --> A'             
     e( 26 - 26) =     28.01134  eV     1   --> A''            
     e( 27 - 27) =     35.50422  eV     1   --> A'             
     e( 28 - 28) =     35.51111  eV     1   --> A''            
     e( 29 - 29) =     36.17661  eV     1   --> A'             
     e( 30 - 30) =     37.58346  eV     1   --> A''            
     e( 31 - 31) =     37.59322  eV     1   --> A'             
     e( 32 - 32) =     39.69177  eV     1   --> A''            
     e( 33 - 33) =     40.99972  eV     1   --> A'             
     e( 34 - 34) =     41.01563  eV     1   --> A''            
     e( 35 - 35) =     42.88354  eV     1   --> A'             
     e( 36 - 36) =     46.84973  eV     1   --> A''            
     e( 37 - 37) =     46.85167  eV     1   --> A'             
     e( 38 - 38) =     47.11242  eV     1   --> A'             
     e( 39 - 39) =     47.40734  eV     1   --> A'             
     e( 40 - 40) =     47.42685  eV     1   --> A''            

 **************************************************************************

 **************************************************************************

                    xk=(   0.08840,   0.08840,  -0.08843  )

     Band symmetry, C_s (m)     point group:

     e(  1 -  1) =    -48.94098  eV     1   --> A'             
     e(  2 -  2) =    -48.87009  eV     1   --> A'             
     e(  3 -  3) =    -19.23888  eV     1   --> A'             
     e(  4 -  4) =    -19.23555  eV     1   --> A'             
     e(  5 -  5) =    -19.23528  eV     1   --> A''            
     e(  6 -  6) =    -19.06039  eV     1   --> A'             
     e(  7 -  8) =    -19.05171  eV     2   --> A'             
     e(  7 -  8) =    -19.05171  eV     2   --> A''            
     e(  9 -  9) =    -12.23294  eV     1   --> A'             
     e( 10 - 10) =      3.18920  eV     1   --> A'             
     e( 11 - 11) =      3.52349  eV     1   --> A'             
     e( 12 - 12) =      3.52442  eV     1   --> A''            
     e( 13 - 13) =      6.60813  eV     1   --> A'             
     e( 14 - 14) =     16.16889  eV     1   --> A'             
     e( 15 - 15) =     16.92468  eV     1   --> A'             
     e( 16 - 16) =     16.92997  eV     1   --> A''            
     e( 17 - 17) =     18.10007  eV     1   --> A'             
     e( 18 - 18) =     18.10710  eV     1   --> A''            
     e( 19 - 19) =     18.76435  eV     1   --> A'             
     e( 20 - 20) =     20.02054  eV     1   --> A'             
     e( 21 - 21) =     20.02359  eV     1   --> A''            
     e( 22 - 22) =     23.82908  eV     1   --> A'             
     e( 23 - 23) =     27.42900  eV     1   --> A'             
     e( 24 - 24) =     28.18721  eV     1   --> A'             
     e( 25 - 25) =     28.19450  eV     1   --> A''            
     e( 26 - 26) =     28.22679  eV     1   --> A'             
     e( 27 - 27) =     33.92942  eV     1   --> A'             
     e( 28 - 28) =     33.94186  eV     1   --> A''            
     e( 29 - 29) =     36.18460  eV     1   --> A'             
     e( 30 - 30) =     37.49690  eV     1   --> A''            
     e( 31 - 31) =     37.51284  eV     1   --> A'             
     e( 32 - 32) =     39.86845  eV     1   --> A''            
     e( 33 - 33) =     43.08399  eV     1   --> A'             
     e( 34 - 34) =     43.10061  eV     1   --> A''            
     e( 35 - 35) =     43.16169  eV     1   --> A'             
     e( 36 - 36) =     45.73287  eV     1   --> A''            
     e( 37 - 37) =     45.73806  eV     1   --> A'             
     e( 38 - 38) =     46.19873  eV     1   --> A'             
     e( 39 - 39) =     47.23603  eV     1   --> A'             
     e( 40 - 40) =     47.25428  eV     1   --> A''            

 **************************************************************************

 **************************************************************************

                    xk=(   0.13260,   0.13260,  -0.13265  )

     Band symmetry, C_s (m)     point group:

     e(  1 -  1) =    -48.93726  eV     1   --> A'             
     e(  2 -  2) =    -48.87347  eV     1   --> A'             
     e(  3 -  3) =    -19.23516  eV     1   --> A'             
     e(  4 -  4) =    -19.22730  eV     1   --> A'             
     e(  5 -  5) =    -19.22704  eV     1   --> A''            
     e(  6 -  6) =    -19.07933  eV     1   --> A'             
     e(  7 -  8) =    -19.06177  eV     2   --> A'             
     e(  7 -  8) =    -19.06177  eV     2   --> A''            
     e(  9 -  9) =    -12.19870  eV     1   --> A'             
     e( 10 - 10) =      2.90995  eV     1   --> A'             
     e( 11 - 11) =      3.51818  eV     1   --> A'             
     e( 12 - 12) =      3.51905  eV     1   --> A''            
     e( 13 - 13) =      7.14788  eV     1   --> A'             
     e( 14 - 14) =     15.16010  eV     1   --> A'             
     e( 15 - 15) =     16.40599  eV     1   --> A'             
     e( 16 - 16) =     16.41086  eV     1   --> A''            
     e( 17 - 17) =     18.34859  eV     1   --> A'             
     e( 18 - 18) =     18.35610  eV     1   --> A''            
     e( 19 - 19) =     18.89616  eV     1   --> A'             
     e( 20 - 20) =     20.81504  eV     1   --> A'             
     e( 21 - 21) =     20.81907  eV     1   --> A''            
     e( 22 - 22) =     24.85087  eV     1   --> A'             
     e( 23 - 23) =     26.94417  eV     1   --> A'             
     e( 24 - 24) =     28.51897  eV     1   --> A'             
     e( 25 - 25) =     28.52505  eV     1   --> A''            
     e( 26 - 26) =     29.00624  eV     1   --> A'             
     e( 27 - 27) =     32.22532  eV     1   --> A'             
     e( 28 - 28) =     32.23864  eV     1   --> A''            
     e( 29 - 29) =     36.10270  eV     1   --> A'             
     e( 30 - 30) =     37.71290  eV     1   --> A''            
     e( 31 - 31) =     37.73025  eV     1   --> A'             
     e( 32 - 32) =     40.16281  eV     1   --> A''            
     e( 33 - 33) =     43.50837  eV     1   --> A'             
     e( 34 - 34) =     43.93562  eV     1   --> A''            
     e( 35 - 35) =     43.94167  eV     1   --> A'             
     e( 36 - 36) =     45.01307  eV     1   --> A'             
     e( 37 - 37) =     45.03034  eV     1   --> A''            
     e( 38 - 38) =     45.13737  eV     1   --> A'             
     e( 39 - 39) =     46.94268  eV     1   --> A''            
     e( 40 - 40) =     46.95470  eV     1   --> A'             

 **************************************************************************

 **************************************************************************

                    xk=(   0.17681,   0.17681,  -0.17686  )

     Band symmetry, C_s (m)     point group:

     e(  1 -  1) =    -48.93229  eV     1   --> A'             
     e(  2 -  2) =    -48.87805  eV     1   --> A'             
     e(  3 -  3) =    -19.23032  eV     1   --> A'             
     e(  4 -  4) =    -19.21603  eV     1   --> A'             
     e(  5 -  5) =    -19.21579  eV     1   --> A''            
     e(  6 -  6) =    -19.10192  eV     1   --> A'             
     e(  7 -  8) =    -19.07518  eV     2   --> A'             
     e(  7 -  8) =    -19.07518  eV     2   --> A''            
     e(  9 -  9) =    -12.15867  eV     1   --> A'             
     e( 10 - 10) =      2.64997  eV     1   --> A'             
     e( 11 - 11) =      3.51189  eV     1   --> A'             
     e( 12 - 12) =      3.51268  eV     1   --> A''            
     e( 13 - 13) =      7.76120  eV     1   --> A'             
     e( 14 - 14) =     14.15084  eV     1   --> A'             
     e( 15 - 15) =     15.96168  eV     1   --> A'             
     e( 16 - 16) =     15.96652  eV     1   --> A''            
     e( 17 - 17) =     18.69309  eV     1   --> A'             
     e( 18 - 18) =     18.70075  eV     1   --> A''            
     e( 19 - 19) =     19.03405  eV     1   --> A'             
     e( 20 - 20) =     21.56919  eV     1   --> A'             
     e( 21 - 21) =     21.57453  eV     1   --> A''            
     e( 22 - 22) =     25.39413  eV     1   --> A'             
     e( 23 - 23) =     26.96716  eV     1   --> A'             
     e( 24 - 24) =     29.01696  eV     1   --> A'             
     e( 25 - 25) =     29.02142  eV     1   --> A''            
     e( 26 - 26) =     30.03644  eV     1   --> A'             
     e( 27 - 27) =     30.64022  eV     1   --> A'             
     e( 28 - 28) =     30.65343  eV     1   --> A''            
     e( 29 - 29) =     35.82737  eV     1   --> A'             
     e( 30 - 30) =     38.07871  eV     1   --> A''            
     e( 31 - 31) =     38.09655  eV     1   --> A'             
     e( 32 - 32) =     40.57465  eV     1   --> A''            
     e( 33 - 33) =     41.85328  eV     1   --> A''            
     e( 34 - 34) =     41.85915  eV     1   --> A'             
     e( 35 - 35) =     43.24177  eV     1   --> A'             
     e( 36 - 36) =     44.57303  eV     1   --> A'             
     e( 37 - 37) =     45.58199  eV     1   --> A''            
     e( 38 - 38) =     45.59875  eV     1   --> A'             
     e( 39 - 39) =     45.76837  eV     1   --> A'             
     e( 40 - 40) =     45.78551  eV     1   --> A''            

 **************************************************************************

 **************************************************************************

                    xk=(   0.22101,   0.22101,  -0.22108  )

     Band symmetry, C_s (m)     point group:

     e(  1 -  1) =    -48.92628  eV     1   --> A'             
     e(  2 -  2) =    -48.88368  eV     1   --> A'             
     e(  3 -  3) =    -19.22458  eV     1   --> A'             
     e(  4 -  4) =    -19.20205  eV     1   --> A'             
     e(  5 -  5) =    -19.20183  eV     1   --> A''            
     e(  6 -  6) =    -19.12518  eV     1   --> A'             
     e(  7 -  8) =    -19.09129  eV     2   --> A'             
     e(  7 -  8) =    -19.09129  eV     2   --> A''            
     e(  9 -  9) =    -12.11901  eV     1   --> A'             
     e( 10 - 10) =      2.43650  eV     1   --> A'             
     e( 11 - 11) =      3.50558  eV     1   --> A'             
     e( 12 - 12) =      3.50630  eV     1   --> A''            
     e( 13 - 13) =      8.41440  eV     1   --> A'             
     e( 14 - 14) =     13.18122  eV     1   --> A'             
     e( 15 - 15) =     15.60954  eV     1   --> A'             
     e( 16 - 16) =     15.61446  eV     1   --> A''            
     e( 17 - 17) =     19.08787  eV     1   --> A'             
     e( 18 - 18) =     19.09554  eV     1   --> A''            
     e( 19 - 19) =     19.22573  eV     1   --> A'             
     e( 20 - 20) =     22.23911  eV     1   --> A'             
     e( 21 - 21) =     22.24604  eV     1   --> A''            
     e( 22 - 22) =     24.92856  eV     1   --> A'             
     e( 23 - 23) =     28.02400  eV     1   --> A'             
     e( 24 - 24) =     29.03067  eV     1   --> A'             
     e( 25 - 25) =     29.04184  eV     1   --> A''            
     e( 26 - 26) =     29.93296  eV     1   --> A'             
     e( 27 - 27) =     29.93706  eV     1   --> A''            
     e( 28 - 28) =     31.28492  eV     1   --> A'             
     e( 29 - 29) =     35.28727  eV     1   --> A'             
     e( 30 - 30) =     38.55293  eV     1   --> A''            
     e( 31 - 31) =     38.57079  eV     1   --> A'             
     e( 32 - 32) =     39.76023  eV     1   --> A''            
     e( 33 - 33) =     39.76555  eV     1   --> A'             
     e( 34 - 34) =     41.10348  eV     1   --> A''            
     e( 35 - 35) =     41.77112  eV     1   --> A'             
     e( 36 - 36) =     44.30819  eV     1   --> A''            
     e( 37 - 37) =     44.32632  eV     1   --> A'             
     e( 38 - 38) =     44.90403  eV     1   --> A'             
     e( 39 - 39) =     45.69218  eV     1   --> A'             
     e( 40 - 40) =     45.71057  eV     1   --> A''            

 **************************************************************************

 **************************************************************************

                    xk=(   0.26521,   0.26521,  -0.26529  )

     Band symmetry, C_s (m)     point group:

     e(  1 -  1) =    -48.91949  eV     1   --> A'             
     e(  2 -  2) =    -48.89014  eV     1   --> A'             
     e(  3 -  3) =    -19.21820  eV     1   --> A'             
     e(  4 -  4) =    -19.18579  eV     1   --> A'             
     e(  5 -  5) =    -19.18560  eV     1   --> A''            
     e(  6 -  6) =    -19.14623  eV     1   --> A'             
     e(  7 -  8) =    -19.10936  eV     2   --> A'             
     e(  7 -  8) =    -19.10936  eV     2   --> A''            
     e(  9 -  9) =    -12.08568  eV     1   --> A'             
     e( 10 - 10) =      2.28083  eV     1   --> A'             
     e( 11 - 11) =      3.50021  eV     1   --> A'             
     e( 12 - 12) =      3.50087  eV     1   --> A''            
     e( 13 - 13) =      9.09244  eV     1   --> A'             
     e( 14 - 14) =     12.27109  eV     1   --> A'             
     e( 15 - 15) =     15.35566  eV     1   --> A'             
     e( 16 - 16) =     15.36069  eV     1   --> A''            
     e( 17 - 17) =     19.46648  eV     1   --> A'             
     e( 18 - 18) =     19.47270  eV     1   --> A'             
     e( 19 - 19) =     19.47991  eV     1   --> A''            
     e( 20 - 20) =     22.79610  eV     1   --> A'             
     e( 21 - 21) =     22.80466  eV     1   --> A''            
     e( 22 - 22) =     24.28448  eV     1   --> A'             
     e( 23 - 23) =     27.89873  eV     1   --> A'             
     e( 24 - 24) =     27.91103  eV     1   --> A''            
     e( 25 - 25) =     29.31552  eV     1   --> A'             
     e( 26 - 26) =     30.83655  eV     1   --> A'             
     e( 27 - 27) =     30.83676  eV     1   --> A''            
     e( 28 - 28) =     32.72119  eV     1   --> A'             
     e( 29 - 29) =     34.49201  eV     1   --> A'             
     e( 30 - 30) =     37.74203  eV     1   --> A''            
     e( 31 - 31) =     37.74568  eV     1   --> A'             
     e( 32 - 32) =     39.15978  eV     1   --> A''            
     e( 33 - 33) =     39.17831  eV     1   --> A'             
     e( 34 - 34) =     39.93299  eV     1   --> A'             
     e( 35 - 35) =     41.74782  eV     1   --> A''            
     e( 36 - 36) =     43.16650  eV     1   --> A''            
     e( 37 - 37) =     43.18461  eV     1   --> A'             
     e( 38 - 38) =     45.23624  eV     1   --> A'             
     e( 39 - 39) =     45.52413  eV     1   --> A'             
     e( 40 - 40) =     45.53879  eV     1   --> A''            

 **************************************************************************

 **************************************************************************

                    xk=(   0.30941,   0.30941,  -0.30951  )

     Band symmetry, C_s (m)     point group:

     e(  1 -  1) =    -48.91219  eV     1   --> A'             
     e(  2 -  2) =    -48.89723  eV     1   --> A'             
     e(  3 -  3) =    -19.21201  eV     1   --> A'             
     e(  4 -  4) =    -19.16783  eV     1   --> A'             
     e(  5 -  5) =    -19.16765  eV     1   --> A''            
     e(  6 -  6) =    -19.16213  eV     1   --> A'             
     e(  7 -  8) =    -19.12854  eV     2   --> A'             
     e(  7 -  8) =    -19.12854  eV     2   --> A''            
     e(  9 -  9) =    -12.06356  eV     1   --> A'             
     e( 10 - 10) =      2.18688  eV     1   --> A'             
     e( 11 - 11) =      3.49661  eV     1   --> A'             
     e( 12 - 12) =      3.49723  eV     1   --> A''            
     e( 13 - 13) =      9.78410  eV     1   --> A'             
     e( 14 - 14) =     11.43700  eV     1   --> A'             
     e( 15 - 15) =     15.20263  eV     1   --> A'             
     e( 16 - 16) =     15.20772  eV     1   --> A''            
     e( 17 - 17) =     19.69366  eV     1   --> A'             
     e( 18 - 18) =     19.76279  eV     1   --> A'             
     e( 19 - 19) =     19.77018  eV     1   --> A''            
     e( 20 - 20) =     23.20667  eV     1   --> A'             
     e( 21 - 21) =     23.21660  eV     1   --> A''            
     e( 22 - 22) =     23.77730  eV     1   --> A'             
     e( 23 - 23) =     27.04486  eV     1   --> A'             
     e( 24 - 24) =     27.05685  eV     1   --> A''            
     e( 25 - 25) =     30.56236  eV     1   --> A'             
     e( 26 - 26) =     31.95522  eV     1   --> A''            
     e( 27 - 27) =     31.95783  eV     1   --> A'             
     e( 28 - 28) =     33.49674  eV     1   --> A'             
     e( 29 - 29) =     34.35996  eV     1   --> A'             
     e( 30 - 30) =     36.00471  eV     1   --> A''            
     e( 31 - 31) =     36.00642  eV     1   --> A'             
     e( 32 - 32) =     38.03199  eV     1   --> A'             
     e( 33 - 33) =     39.76548  eV     1   --> A''            
     e( 34 - 34) =     39.78438  eV     1   --> A'             
     e( 35 - 35) =     42.21523  eV     1   --> A''            
     e( 36 - 36) =     42.23308  eV     1   --> A'             
     e( 37 - 37) =     42.50050  eV     1   --> A''            
     e( 38 - 38) =     44.44781  eV     1   --> A''            
     e( 39 - 39) =     45.36361  eV     1   --> A'             
     e( 40 - 40) =     45.40168  eV     1   --> A'             

 **************************************************************************

 **************************************************************************

                    xk=(   0.35361,   0.35361,  -0.35373  )

     point group C_2h (2/m) 
     there are  4 classes
     the character table:

       E     C2    i     s_h  
A_g    1.00  1.00  1.00  1.00
B_g    1.00 -1.00  1.00 -1.00
A_u    1.00  1.00 -1.00 -1.00
B_u    1.00 -1.00 -1.00  1.00

     the symmetry operations in each class and the name of the first element:

     E        1
                                                                 
     C2       2
                                                                 
     i        3
                                                                 
     s_h      4
                                                                 

     Band symmetry, C_2h (2/m)  point group:

     e(  1 -  2) =    -48.90470  eV     2   --> A_g            
     e(  1 -  2) =    -48.90470  eV     2   --> B_u            
     e(  3 -  3) =    -19.20893  eV     1   --> A_g            
     e(  4 -  4) =    -19.16861  eV     1   --> B_u            
     e(  5 -  5) =    -19.15130  eV     1   --> B_u            
     e(  6 -  6) =    -19.15104  eV     1   --> A_u            
     e(  7 -  8) =    -19.14549  eV     2   --> A_g            
     e(  7 -  8) =    -19.14549  eV     2   --> B_g            
     e(  9 -  9) =    -12.05582  eV     1   --> A_g            
     e( 10 - 10) =      2.15554  eV     1   --> B_u            
     e( 11 - 11) =      3.49534  eV     1   --> B_u            
     e( 12 - 12) =      3.49595  eV     1   --> A_u            
     e( 13 - 13) =     10.30573  eV     1   --> B_u            
     e( 14 - 14) =     10.86726  eV     1   --> A_g            
     e( 15 - 15) =     15.15152  eV     1   --> A_g            
     e( 16 - 16) =     15.15664  eV     1   --> B_g            
     e( 17 - 17) =     19.79223  eV     1   --> B_u            
     e( 18 - 18) =     19.87264  eV     1   --> B_u            
     e( 19 - 19) =     19.87997  eV     1   --> A_u            
     e( 20 - 20) =     23.37304  eV     1   --> A_g            
     e( 21 - 21) =     23.38357  eV     1   --> B_g            
     e( 22 - 22) =     23.58047  eV     1   --> A_g            
     e( 23 - 23) =     26.71529  eV     1   --> B_u            
     e( 24 - 24) =     26.72707  eV     1   --> A_u            
     e( 25 - 25) =     31.31079  eV     1   --> B_u            
     e( 26 - 26) =     32.69002  eV     1   --> B_g            
     e( 27 - 27) =     32.69519  eV     1   --> A_g            
     e( 28 - 28) =     32.85597  eV     1   --> A_g            
     e( 29 - 29) =     35.06218  eV     1   --> B_u            
     e( 30 - 30) =     35.06275  eV     1   --> A_u            
     e( 31 - 31) =     35.80102  eV     1   --> B_u            
     e( 32 - 32) =     36.46846  eV     1   --> A_g            
     e( 33 - 33) =     40.12336  eV     1   --> B_g            
     e( 34 - 34) =     40.14264  eV     1   --> A_g            
     e( 35 - 35) =     41.74371  eV     1   --> A_u            
     e( 36 - 36) =     41.76121  eV     1   --> B_u            
     e( 37 - 37) =     43.17733  eV     1   --> A_u            
     e( 38 - 38) =     43.65307  eV     1   --> B_g            
     e( 39 - 39) =     45.35820  eV     1   --> A_g            
     e( 40 - 40) =     45.37666  eV     1   --> B_g            

 **************************************************************************

 **************************************************************************

                    xk=(   0.26518,   0.44201,  -0.26532  )

     point group C_1 (1)    
     there are  1 classes
     the character table:

       E    
A      1.00

     the symmetry operations in each class and the name of the first element:

     E        1
                                                                 

     Band symmetry, C_1 (1)     point group:

     e(  1 -  1) =    -48.90950  eV     1   --> A              
     e(  2 -  2) =    -48.89972  eV     1   --> A              
     e(  3 -  3) =    -19.25709  eV     1   --> A              
     e(  4 -  4) =    -19.21803  eV     1   --> A              
     e(  5 -  5) =    -19.20275  eV     1   --> A              
     e(  6 -  6) =    -19.11238  eV     1   --> A              
     e(  7 -  7) =    -19.09563  eV     1   --> A              
     e(  8 -  8) =    -19.08854  eV     1   --> A              
     e(  9 -  9) =    -12.04730  eV     1   --> A              
     e( 10 - 10) =      2.25636  eV     1   --> A              
     e( 11 - 11) =      3.36487  eV     1   --> A              
     e( 12 - 12) =      3.46444  eV     1   --> A              
     e( 13 - 13) =      9.96099  eV     1   --> A              
     e( 14 - 14) =     11.43571  eV     1   --> A              
     e( 15 - 15) =     14.73296  eV     1   --> A              
     e( 16 - 16) =     15.30369  eV     1   --> A              
     e( 17 - 17) =     18.95843  eV     1   --> A              
     e( 18 - 18) =     20.07096  eV     1   --> A              
     e( 19 - 19) =     20.79709  eV     1   --> A              
     e( 20 - 20) =     22.70567  eV     1   --> A              
     e( 21 - 21) =     23.58990  eV     1   --> A              
     e( 22 - 22) =     24.53005  eV     1   --> A              
     e( 23 - 23) =     26.73211  eV     1   --> A              
     e( 24 - 24) =     26.83406  eV     1   --> A              
     e( 25 - 25) =     30.74123  eV     1   --> A              
     e( 26 - 26) =     31.35438  eV     1   --> A              
     e( 27 - 27) =     32.89141  eV     1   --> A              
     e( 28 - 28) =     33.96617  eV     1   --> A              
     e( 29 - 29) =     34.97832  eV     1   --> A              
     e( 30 - 30) =     35.36624  eV     1   --> A              
     e( 31 - 31) =     36.46163  eV     1   --> A              
     e( 32 - 32) =     37.42535  eV     1   --> A              
     e( 33 - 33) =     37.61202  eV     1   --> A              
     e( 34 - 34) =     38.97460  eV     1   --> A              
     e( 35 - 35) =     40.28597  eV     1   --> A              
     e( 36 - 36) =     40.78846  eV     1   --> A              
     e( 37 - 37) =     44.29884  eV     1   --> A              
     e( 38 - 38) =     44.79302  eV     1   --> A              
     e( 39 - 39) =     45.63555  eV     1   --> A              
     e( 40 - 40) =     46.13308  eV     1   --> A              

 **************************************************************************

 **************************************************************************

                    xk=(   0.17675,   0.53042,  -0.17692  )

     Band symmetry, C_1 (1)     point group:

     e(  1 -  1) =    -48.91349  eV     1   --> A              
     e(  2 -  2) =    -48.89545  eV     1   --> A              
     e(  3 -  3) =    -19.32303  eV     1   --> A              
     e(  4 -  4) =    -19.26122  eV     1   --> A              
     e(  5 -  5) =    -19.25007  eV     1   --> A              
     e(  6 -  6) =    -19.06126  eV     1   --> A              
     e(  7 -  7) =    -19.05228  eV     1   --> A              
     e(  8 -  8) =    -19.03519  eV     1   --> A              
     e(  9 -  9) =    -12.02629  eV     1   --> A              
     e( 10 - 10) =      2.45232  eV     1   --> A              
     e( 11 - 11) =      3.14660  eV     1   --> A              
     e( 12 - 12) =      3.39181  eV     1   --> A              
     e( 13 - 13) =      9.44279  eV     1   --> A              
     e( 14 - 14) =     12.48679  eV     1   --> A              
     e( 15 - 15) =     14.21839  eV     1   --> A              
     e( 16 - 16) =     15.63919  eV     1   --> A              
     e( 17 - 17) =     17.50046  eV     1   --> A              
     e( 18 - 18) =     20.74248  eV     1   --> A              
     e( 19 - 19) =     20.96866  eV     1   --> A              
     e( 20 - 20) =     23.10106  eV     1   --> A              
     e( 21 - 21) =     24.14188  eV     1   --> A              
     e( 22 - 22) =     25.89453  eV     1   --> A              
     e( 23 - 23) =     26.80256  eV     1   --> A              
     e( 24 - 24) =     27.58357  eV     1   --> A              
     e( 25 - 25) =     29.62638  eV     1   --> A              
     e( 26 - 26) =     30.04811  eV     1   --> A              
     e( 27 - 27) =     32.77231  eV     1   --> A              
     e( 28 - 28) =     33.13187  eV     1   --> A              
     e( 29 - 29) =     34.54874  eV     1   --> A              
     e( 30 - 30) =     35.61144  eV     1   --> A              
     e( 31 - 31) =     36.04012  eV     1   --> A              
     e( 32 - 32) =     36.82769  eV     1   --> A              
     e( 33 - 33) =     37.63630  eV     1   --> A              
     e( 34 - 34) =     39.61944  eV     1   --> A              
     e( 35 - 35) =     40.05267  eV     1   --> A              
     e( 36 - 36) =     40.53448  eV     1   --> A              
     e( 37 - 37) =     42.86134  eV     1   --> A              
     e( 38 - 38) =     45.00669  eV     1   --> A              
     e( 39 - 39) =     45.29231  eV     1   --> A              
     e( 40 - 40) =     46.10799  eV     1   --> A              

 **************************************************************************

 **************************************************************************

                    xk=(   0.08832,   0.61882,  -0.08852  )

     Band symmetry, C_1 (1)     point group:

     e(  1 -  1) =    -48.91610  eV     1   --> A              
     e(  2 -  2) =    -48.89255  eV     1   --> A              
     e(  3 -  3) =    -19.37229  eV     1   --> A              
     e(  4 -  4) =    -19.28584  eV     1   --> A              
     e(  5 -  5) =    -19.28240  eV     1   --> A              
     e(  6 -  6) =    -19.02632  eV     1   --> A              
     e(  7 -  7) =    -19.02393  eV     1   --> A              
     e(  8 -  8) =    -19.00096  eV     1   --> A              
     e(  9 -  9) =    -12.00468  eV     1   --> A              
     e( 10 - 10) =      2.44919  eV     1   --> A              
     e( 11 - 11) =      3.19449  eV     1   --> A              
     e( 12 - 12) =      3.32228  eV     1   --> A              
     e( 13 - 13) =      8.96093  eV     1   --> A              
     e( 14 - 14) =     13.31289  eV     1   --> A              
     e( 15 - 15) =     14.45654  eV     1   --> A              
     e( 16 - 16) =     15.92583  eV     1   --> A              
     e( 17 - 17) =     16.39196  eV     1   --> A              
     e( 18 - 18) =     19.14889  eV     1   --> A              
     e( 19 - 19) =     21.95475  eV     1   --> A              
     e( 20 - 20) =     24.65847  eV     1   --> A              
     e( 21 - 21) =     25.77236  eV     1   --> A              
     e( 22 - 22) =     26.70376  eV     1   --> A              
     e( 23 - 23) =     26.99766  eV     1   --> A              
     e( 24 - 24) =     28.19770  eV     1   --> A              
     e( 25 - 25) =     28.38127  eV     1   --> A              
     e( 26 - 26) =     29.55393  eV     1   --> A              
     e( 27 - 27) =     30.13173  eV     1   --> A              
     e( 28 - 28) =     32.81585  eV     1   --> A              
     e( 29 - 29) =     34.11758  eV     1   --> A              
     e( 30 - 30) =     34.77975  eV     1   --> A              
     e( 31 - 31) =     35.08294  eV     1   --> A              
     e( 32 - 32) =     36.78670  eV     1   --> A              
     e( 33 - 33) =     38.12133  eV     1   --> A              
     e( 34 - 34) =     39.05808  eV     1   --> A              
     e( 35 - 35) =     41.54642  eV     1   --> A              
     e( 36 - 36) =     41.92958  eV     1   --> A              
     e( 37 - 37) =     43.30418  eV     1   --> A              
     e( 38 - 38) =     44.64749  eV     1   --> A              
     e( 39 - 39) =     45.55637  eV     1   --> A              
     e( 40 - 40) =     45.89846  eV     1   --> A              

 **************************************************************************

 **************************************************************************

                    xk=(  -0.00012,   0.70722,  -0.00012  )

     point group C_2h (2/m) 
     there are  4 classes
     the character table:

       E     C2    i     s_h  
A_g    1.00  1.00  1.00  1.00
B_g    1.00 -1.00  1.00 -1.00
A_u    1.00  1.00 -1.00 -1.00
B_u    1.00 -1.00 -1.00  1.00

     the symmetry operations in each class and the name of the first element:

     E        1
                                                                 
     C2       2
                                                                 
     i        3
                                                                 
     s_h      4
                                                                 

     Band symmetry, C_2h (2/m)  point group:

     e(  1 -  1) =    -48.91700  eV     1   --> B_u            
     e(  2 -  2) =    -48.89153  eV     1   --> A_g            
     e(  3 -  3) =    -19.39040  eV     1   --> A_g            
     e(  4 -  4) =    -19.29389  eV     1   --> B_u            
     e(  5 -  5) =    -19.29366  eV     1   --> A_u            
     e(  6 -  7) =    -19.01409  eV     2   --> A_g            
     e(  6 -  7) =    -19.01409  eV     2   --> B_g            
     e(  8 -  8) =    -18.98922  eV     1   --> B_u            
     e(  9 -  9) =    -11.99555  eV     1   --> A_g            
     e( 10 - 10) =      2.38679  eV     1   --> B_u            
     e( 11 - 11) =      3.29433  eV     1   --> B_u            
     e( 12 - 12) =      3.29551  eV     1   --> A_u            
     e( 13 - 13) =      8.75681  eV     1   --> A_g            
     e( 14 - 14) =     13.45057  eV     1   --> B_u            
     e( 15 - 15) =     15.05100  eV     1   --> A_g            
     e( 16 - 16) =     16.02895  eV     1   --> B_u            
     e( 17 - 17) =     16.03354  eV     1   --> A_u            
     e( 18 - 18) =     18.12263  eV     1   --> A_g            
     e( 19 - 19) =     22.97945  eV     1   --> A_u            
     e( 20 - 20) =     24.55089  eV     1   --> B_g            
     e( 21 - 21) =     26.94338  eV     1   --> A_g            
     e( 22 - 22) =     26.94626  eV     1   --> B_g            
     e( 23 - 23) =     28.13236  eV     1   --> B_u            
     e( 24 - 24) =     28.13489  eV     1   --> A_u            
     e( 25 - 25) =     28.43849  eV     1   --> A_g            
     e( 26 - 26) =     28.55084  eV     1   --> A_g            
     e( 27 - 27) =     28.55503  eV     1   --> B_g            
     e( 28 - 28) =     33.27334  eV     1   --> B_u            
     e( 29 - 29) =     33.40219  eV     1   --> B_u            
     e( 30 - 30) =     33.41283  eV     1   --> A_u            
     e( 31 - 31) =     35.89723  eV     1   --> B_u            
     e( 32 - 32) =     36.30334  eV     1   --> A_g            
     e( 33 - 33) =     37.75100  eV     1   --> B_u            
     e( 34 - 34) =     40.00811  eV     1   --> B_u            
     e( 35 - 35) =     40.41448  eV     1   --> A_g            
     e( 36 - 36) =     42.35664  eV     1   --> A_g            
     e( 37 - 37) =     44.96807  eV     1   --> B_g            
     e( 38 - 38) =     45.16690  eV     1   --> A_g            
     e( 39 - 39) =     46.23467  eV     1   --> B_u            
     e( 40 - 40) =     47.11127  eV     1   --> B_u            

 **************************************************************************

 **************************************************************************

                    xk=(   0.08829,   0.61879,   0.08829  )

     point group C_s (m)    
     there are  2 classes
     the character table:

       E     s    
A'     1.00  1.00
A''    1.00 -1.00

     the symmetry operations in each class and the name of the first element:

     E        1
                                                                 
     s        2
                                                                 

     Band symmetry, C_s (m)     point group:

     e(  1 -  1) =    -48.91610  eV     1   --> A'             
     e(  2 -  2) =    -48.89255  eV     1   --> A'             
     e(  3 -  3) =    -19.37230  eV     1   --> A'             
     e(  4 -  4) =    -19.28603  eV     1   --> A'             
     e(  5 -  5) =    -19.28219  eV     1   --> A''            
     e(  6 -  6) =    -19.02634  eV     1   --> A'             
     e(  7 -  7) =    -19.02390  eV     1   --> A''            
     e(  8 -  8) =    -19.00095  eV     1   --> A'             
     e(  9 -  9) =    -12.00472  eV     1   --> A'             
     e( 10 - 10) =      2.44916  eV     1   --> A'             
     e( 11 - 11) =      3.19343  eV     1   --> A'             
     e( 12 - 12) =      3.32343  eV     1   --> A''            
     e( 13 - 13) =      8.96085  eV     1   --> A'             
     e( 14 - 14) =     13.31305  eV     1   --> A'             
     e( 15 - 15) =     14.45507  eV     1   --> A'             
     e( 16 - 16) =     15.93068  eV     1   --> A''            
     e( 17 - 17) =     16.39006  eV     1   --> A'             
     e( 18 - 18) =     19.14741  eV     1   --> A'             
     e( 19 - 19) =     21.95648  eV     1   --> A''            
     e( 20 - 20) =     24.65741  eV     1   --> A''            
     e( 21 - 21) =     25.77482  eV     1   --> A'             
     e( 22 - 22) =     26.70090  eV     1   --> A'             
     e( 23 - 23) =     27.00183  eV     1   --> A''            
     e( 24 - 24) =     28.19665  eV     1   --> A''            
     e( 25 - 25) =     28.37208  eV     1   --> A'             
     e( 26 - 26) =     29.55095  eV     1   --> A'             
     e( 27 - 27) =     30.13781  eV     1   --> A''            
     e( 28 - 28) =     32.80596  eV     1   --> A'             
     e( 29 - 29) =     34.12824  eV     1   --> A''            
     e( 30 - 30) =     34.78287  eV     1   --> A'             
     e( 31 - 31) =     35.07809  eV     1   --> A'             
     e( 32 - 32) =     36.78379  eV     1   --> A'             
     e( 33 - 33) =     38.12558  eV     1   --> A'             
     e( 34 - 34) =     39.05836  eV     1   --> A'             
     e( 35 - 35) =     41.54720  eV     1   --> A'             
     e( 36 - 36) =     41.92401  eV     1   --> A'             
     e( 37 - 37) =     43.29151  eV     1   --> A''            
     e( 38 - 38) =     44.64484  eV     1   --> A'             
     e( 39 - 39) =     45.56224  eV     1   --> A'             
     e( 40 - 40) =     45.91775  eV     1   --> A''            

 **************************************************************************

 **************************************************************************

                    xk=(   0.17669,   0.53036,   0.17669  )

     Band symmetry, C_s (m)     point group:

     e(  1 -  1) =    -48.91349  eV     1   --> A'             
     e(  2 -  2) =    -48.89545  eV     1   --> A'             
     e(  3 -  3) =    -19.32305  eV     1   --> A'             
     e(  4 -  4) =    -19.26135  eV     1   --> A'             
     e(  5 -  5) =    -19.24988  eV     1   --> A''            
     e(  6 -  6) =    -19.06127  eV     1   --> A'             
     e(  7 -  7) =    -19.05223  eV     1   --> A''            
     e(  8 -  8) =    -19.03518  eV     1   --> A'             
     e(  9 -  9) =    -12.02642  eV     1   --> A'             
     e( 10 - 10) =      2.45180  eV     1   --> A'             
     e( 11 - 11) =      3.14629  eV     1   --> A'             
     e( 12 - 12) =      3.39286  eV     1   --> A''            
     e( 13 - 13) =      9.44242  eV     1   --> A'             
     e( 14 - 14) =     12.48588  eV     1   --> A'             
     e( 15 - 15) =     14.21873  eV     1   --> A'             
     e( 16 - 16) =     15.64465  eV     1   --> A''            
     e( 17 - 17) =     17.49926  eV     1   --> A'             
     e( 18 - 18) =     20.74525  eV     1   --> A''            
     e( 19 - 19) =     20.96560  eV     1   --> A'             
     e( 20 - 20) =     23.10307  eV     1   --> A'             
     e( 21 - 21) =     24.14143  eV     1   --> A''            
     e( 22 - 22) =     25.89048  eV     1   --> A'             
     e( 23 - 23) =     26.80597  eV     1   --> A''            
     e( 24 - 24) =     27.57817  eV     1   --> A'             
     e( 25 - 25) =     29.62293  eV     1   --> A''            
     e( 26 - 26) =     30.03965  eV     1   --> A'             
     e( 27 - 27) =     32.76649  eV     1   --> A'             
     e( 28 - 28) =     33.13788  eV     1   --> A''            
     e( 29 - 29) =     34.54067  eV     1   --> A'             
     e( 30 - 30) =     35.60366  eV     1   --> A'             
     e( 31 - 31) =     36.05062  eV     1   --> A''            
     e( 32 - 32) =     36.82914  eV     1   --> A'             
     e( 33 - 33) =     37.63553  eV     1   --> A'             
     e( 34 - 34) =     39.61540  eV     1   --> A'             
     e( 35 - 35) =     40.03969  eV     1   --> A''            
     e( 36 - 36) =     40.54201  eV     1   --> A'             
     e( 37 - 37) =     42.87224  eV     1   --> A'             
     e( 38 - 38) =     44.99353  eV     1   --> A'             
     e( 39 - 39) =     45.31405  eV     1   --> A''            
     e( 40 - 40) =     46.12414  eV     1   --> A'             

 **************************************************************************

 **************************************************************************

                    xk=(   0.26509,   0.44193,   0.26509  )

     Band symmetry, C_s (m)     point group:

     e(  1 -  1) =    -48.90950  eV     1   --> A'             
     e(  2 -  2) =    -48.89972  eV     1   --> A'             
     e(  3 -  3) =    -19.25716  eV     1   --> A'             
     e(  4 -  4) =    -19.21807  eV     1   --> A'             
     e(  5 -  5) =    -19.20259  eV     1   --> A''            
     e(  6 -  6) =    -19.11240  eV     1   --> A'             
     e(  7 -  7) =    -19.09554  eV     1   --> A''            
     e(  8 -  8) =    -19.08850  eV     1   --> A'             
     e(  9 -  9) =    -12.04751  eV     1   --> A'             
     e( 10 - 10) =      2.25546  eV     1   --> A'             
     e( 11 - 11) =      3.36524  eV     1   --> A'             
     e( 12 - 12) =      3.46538  eV     1   --> A''            
     e( 13 - 13) =      9.96008  eV     1   --> A'             
     e( 14 - 14) =     11.43441  eV     1   --> A'             
     e( 15 - 15) =     14.73531  eV     1   --> A'             
     e( 16 - 16) =     15.30967  eV     1   --> A''            
     e( 17 - 17) =     18.95769  eV     1   --> A'             
     e( 18 - 18) =     20.07433  eV     1   --> A''            
     e( 19 - 19) =     20.79742  eV     1   --> A'             
     e( 20 - 20) =     22.70142  eV     1   --> A'             
     e( 21 - 21) =     23.58931  eV     1   --> A''            
     e( 22 - 22) =     24.52318  eV     1   --> A'             
     e( 23 - 23) =     26.73651  eV     1   --> A''            
     e( 24 - 24) =     26.83166  eV     1   --> A'             
     e( 25 - 25) =     30.73183  eV     1   --> A'             
     e( 26 - 26) =     31.34719  eV     1   --> A''            
     e( 27 - 27) =     32.88693  eV     1   --> A'             
     e( 28 - 28) =     33.96337  eV     1   --> A'             
     e( 29 - 29) =     34.97112  eV     1   --> A'             
     e( 30 - 30) =     35.35567  eV     1   --> A'             
     e( 31 - 31) =     36.45583  eV     1   --> A''            
     e( 32 - 32) =     37.42840  eV     1   --> A''            
     e( 33 - 33) =     37.59324  eV     1   --> A'             
     e( 34 - 34) =     38.98338  eV     1   --> A''            
     e( 35 - 35) =     40.30294  eV     1   --> A'             
     e( 36 - 36) =     40.80184  eV     1   --> A'             
     e( 37 - 37) =     44.30700  eV     1   --> A'             
     e( 38 - 38) =     44.81415  eV     1   --> A''            
     e( 39 - 39) =     45.64433  eV     1   --> A'             
     e( 40 - 40) =     46.15022  eV     1   --> A''            

 **************************************************************************

 **************************************************************************

                    xk=(   0.35350,   0.35350,   0.35350  )

     point group D_3d (-3m) 
     there are  6 classes
     the character table:

       E     2C3   3C2'  i     2S6   3s_d 
A_1g   1.00  1.00  1.00  1.00  1.00  1.00
A_2g   1.00  1.00 -1.00  1.00  1.00 -1.00
E_g    2.00 -1.00  0.00  2.00 -1.00  0.00
A_1u   1.00  1.00  1.00 -1.00 -1.00 -1.00
A_2u   1.00  1.00 -1.00 -1.00 -1.00  1.00
E_u    2.00 -1.00  0.00 -2.00  1.00  0.00

     the symmetry operations in each class and the name of the first element:

     E        1
                                                                 
     2C3      5    6
                                                                 
     3C2'     2    4    3
                                                                 
     i        7
                                                                 
     2S6     11   12
                                                                 
     3s_d     8   10    9
                                                                 

     Band symmetry, D_3d (-3m)  point group:

     e(  1 -  2) =    -48.90468  eV     2   --> A_1g L_1       
     e(  1 -  2) =    -48.90468  eV     2   --> A_2u L_2'      
     e(  3 -  3) =    -19.20900  eV     1   --> A_1g L_1       
     e(  4 -  4) =    -19.16872  eV     1   --> A_2u L_2'      
     e(  5 -  6) =    -19.15117  eV     2   --> E_u  L_3'      
     e(  7 -  8) =    -19.14530  eV     2   --> E_g  L_3       
     e(  9 -  9) =    -12.05606  eV     1   --> A_1g L_1       
     e( 10 - 10) =      2.15458  eV     1   --> A_2u L_2'      
     e( 11 - 12) =      3.49639  eV     2   --> E_u  L_3'      
     e( 13 - 13) =     10.30431  eV     1   --> A_2u L_2'      
     e( 14 - 14) =     10.86615  eV     1   --> A_1g L_1       
     e( 15 - 16) =     15.15896  eV     2   --> E_g  L_3       
     e( 17 - 17) =     19.79202  eV     1   --> A_2u L_2'      
     e( 18 - 19) =     19.87809  eV     2   --> E_u  L_3'      
     e( 20 - 21) =     23.37495  eV     2   --> E_g  L_3       
     e( 22 - 22) =     23.57252  eV     1   --> A_1g L_1       
     e( 23 - 24) =     26.72287  eV     2   --> E_u  L_3'      
     e( 25 - 25) =     31.29996  eV     1   --> A_2u L_2'      
     e( 26 - 27) =     32.68279  eV     2   --> E_g  L_3       
     e( 28 - 28) =     32.86113  eV     1   --> A_1g L_1       
     e( 29 - 30) =     35.05477  eV     2   --> E_u  L_3'      
     e( 31 - 31) =     35.79041  eV     1   --> A_2u L_2'      
     e( 32 - 32) =     36.44680  eV     1   --> A_1g L_1       
     e( 33 - 34) =     40.14612  eV     2   --> E_g  L_3       
     e( 35 - 36) =     41.76382  eV     2   --> E_u  L_3'      
     e( 37 - 37) =     43.19095  eV     1   --> A_1u L_1'      
     e( 38 - 38) =     43.66506  eV     1   --> A_2g L_2       
     e( 39 - 40) =     45.38315  eV     2   --> E_g  L_3       

 **************************************************************************

 **************************************************************************

                    xk=(   0.32401,   0.32401,   0.32401  )

     point group C_3v (3m)  
     there are  3 classes
     the character table:

       E     2C3   3s_v 
A_1    1.00  1.00  1.00
A_2    1.00  1.00 -1.00
E      2.00 -1.00  0.00

     the symmetry operations in each class and the name of the first element:

     E        1
                                                                 
     2C3      2    3
                                                                 
     3s_v     4    5    6
                                                                 

     Band symmetry, C_3v (3m)   point group:

     e(  1 -  1) =    -48.90970  eV     1   --> A_1  L_1       
     e(  2 -  2) =    -48.89968  eV     1   --> A_1  L_1       
     e(  3 -  3) =    -19.21050  eV     1   --> A_1  L_1       
     e(  4 -  4) =    -19.16570  eV     1   --> A_1  L_1       
     e(  5 -  6) =    -19.16146  eV     2   --> E    L_3       
     e(  7 -  8) =    -19.13482  eV     2   --> E    L_3       
     e(  9 -  9) =    -12.05953  eV     1   --> A_1  L_1       
     e( 10 - 10) =      2.16854  eV     1   --> A_1  L_1       
     e( 11 - 12) =      3.49695  eV     2   --> E    L_3       
     e( 13 - 13) =     10.00691  eV     1   --> A_1  L_1       
     e( 14 - 14) =     11.18494  eV     1   --> A_1  L_1       
     e( 15 - 16) =     15.18170  eV     2   --> E    L_3       
     e( 17 - 17) =     19.74622  eV     1   --> A_1  L_1       
     e( 18 - 19) =     19.82831  eV     2   --> E    L_3       
     e( 20 - 21) =     23.29836  eV     2   --> E    L_3       
     e( 22 - 22) =     23.66230  eV     1   --> A_1  L_1       
     e( 23 - 24) =     26.87289  eV     2   --> E    L_3       
     e( 25 - 25) =     30.91237  eV     1   --> A_1  L_1       
     e( 26 - 27) =     32.30017  eV     2   --> E    L_3       
     e( 28 - 28) =     33.20397  eV     1   --> A_1  L_1       
     e( 29 - 29) =     34.89223  eV     1   --> A_1  L_1       
     e( 30 - 31) =     35.52961  eV     2   --> E    L_3       
     e( 32 - 32) =     37.39723  eV     1   --> A_1  L_1       
     e( 33 - 34) =     39.96557  eV     2   --> E    L_3       
     e( 35 - 36) =     41.99486  eV     2   --> E    L_3       
     e( 37 - 37) =     42.78166  eV     1   --> A_2  L_2       
     e( 38 - 38) =     44.12680  eV     1   --> A_2  L_2       
     e( 39 - 39) =     45.39073  eV     1   --> A_1  L_1       
     e( 40 - 40) =     45.40257  eV     1   -->   ?

 **************************************************************************

 **************************************************************************

                    xk=(   0.29460,   0.29460,   0.29460  )

     Band symmetry, C_3v (3m)   point group:

     e(  1 -  1) =    -48.91466  eV     1   --> A_1  L_1       
     e(  2 -  2) =    -48.89482  eV     1   --> A_1  L_1       
     e(  3 -  3) =    -19.21406  eV     1   --> A_1  L_1       
     e(  4 -  5) =    -19.17376  eV     2   --> E    L_3       
     e(  6 -  6) =    -19.15769  eV     1   --> A_1  L_1       
     e(  7 -  8) =    -19.12197  eV     2   --> E    L_3       
     e(  9 -  9) =    -12.06967  eV     1   --> A_1  L_1       
     e( 10 - 10) =      2.21028  eV     1   --> A_1  L_1       
     e( 11 - 12) =      3.49861  eV     2   --> E    L_3       
     e( 13 - 13) =      9.55313  eV     1   --> A_1  L_1       
     e( 14 - 14) =     11.70229  eV     1   --> A_1  L_1       
     e( 15 - 16) =     15.24962  eV     2   --> E    L_3       
     e( 17 - 17) =     19.62571  eV     1   --> A_1  L_1       
     e( 18 - 19) =     19.68790  eV     2   --> E    L_3       
     e( 20 - 21) =     23.09317  eV     2   --> E    L_3       
     e( 22 - 22) =     23.91166  eV     1   --> A_1  L_1       
     e( 23 - 24) =     27.28790  eV     2   --> E    L_3       
     e( 25 - 25) =     30.15818  eV     1   --> A_1  L_1       
     e( 26 - 27) =     31.57274  eV     2   --> E    L_3       
     e( 28 - 28) =     33.66619  eV     1   --> A_1  L_1       
     e( 29 - 29) =     33.95573  eV     1   --> A_1  L_1       
     e( 30 - 31) =     36.53274  eV     2   --> E    L_3       
     e( 32 - 32) =     38.64161  eV     1   --> A_1  L_1       
     e( 33 - 34) =     39.58988  eV     2   --> E    L_3       
     e( 35 - 35) =     42.25321  eV     1   --> A_2  L_2       
     e( 36 - 37) =     42.52193  eV     2   --> E    L_3       
     e( 38 - 38) =     44.81210  eV     1   --> A_2  L_2       
     e( 39 - 39) =     45.34766  eV     1   --> A_1  L_1       
     e( 40 - 40) =     45.45924  eV     1   -->   ?

 **************************************************************************

 **************************************************************************

                    xk=(   0.26512,   0.26512,   0.26512  )

     Band symmetry, C_3v (3m)   point group:

     e(  1 -  1) =    -48.91949  eV     1   --> A_1  L_1       
     e(  2 -  2) =    -48.89015  eV     1   --> A_1  L_1       
     e(  3 -  3) =    -19.21836  eV     1   --> A_1  L_1       
     e(  4 -  5) =    -19.18559  eV     2   --> E    L_3       
     e(  6 -  6) =    -19.14626  eV     1   --> A_1  L_1       
     e(  7 -  8) =    -19.10925  eV     2   --> E    L_3       
     e(  9 -  9) =    -12.08589  eV     1   --> A_1  L_1       
     e( 10 - 10) =      2.27994  eV     1   --> A_1  L_1       
     e( 11 - 12) =      3.50124  eV     2   --> E    L_3       
     e( 13 - 13) =      9.09165  eV     1   --> A_1  L_1       
     e( 14 - 14) =     12.26875  eV     1   --> A_1  L_1       
     e( 15 - 16) =     15.36289  eV     2   --> E    L_3       
     e( 17 - 17) =     19.46589  eV     1   --> A_1  L_1       
     e( 18 - 19) =     19.47809  eV     2   --> E    L_3       
     e( 20 - 21) =     22.79914  eV     2   --> E    L_3       
     e( 22 - 22) =     24.27683  eV     1   --> A_1  L_1       
     e( 23 - 24) =     27.90287  eV     2   --> E    L_3       
     e( 25 - 25) =     29.30982  eV     1   --> A_1  L_1       
     e( 26 - 27) =     30.83260  eV     2   --> E    L_3       
     e( 28 - 28) =     32.71096  eV     1   --> A_1  L_1       
     e( 29 - 29) =     34.49195  eV     1   --> A_1  L_1       
     e( 30 - 31) =     37.73110  eV     2   --> E    L_3       
     e( 32 - 33) =     39.18281  eV     2   --> E    L_3       
     e( 34 - 34) =     39.91339  eV     1   --> A_1  L_1       
     e( 35 - 35) =     41.76215  eV     1   --> A_2  L_2       
     e( 36 - 37) =     43.18559  eV     2   --> E    L_3       
     e( 38 - 38) =     45.24363  eV     1   --> A_1  L_1       
     e( 39 - 40) =     45.54863  eV     2   --> E    L_3       

 **************************************************************************

 **************************************************************************

                    xk=(   0.23564,   0.23564,   0.23564  )

     Band symmetry, C_3v (3m)   point group:

     e(  1 -  1) =    -48.92410  eV     1   --> A_1  L_1       
     e(  2 -  2) =    -48.88575  eV     1   --> A_1  L_1       
     e(  3 -  3) =    -19.22270  eV     1   --> A_1  L_1       
     e(  4 -  5) =    -19.19665  eV     2   --> E    L_3       
     e(  6 -  6) =    -19.13258  eV     1   --> A_1  L_1       
     e(  7 -  8) =    -19.09704  eV     2   --> E    L_3       
     e(  9 -  9) =    -12.10714  eV     1   --> A_1  L_1       
     e( 10 - 10) =      2.37713  eV     1   --> A_1  L_1       
     e( 11 - 12) =      3.50467  eV     2   --> E    L_3       
     e( 13 - 13) =      8.63703  eV     1   --> A_1  L_1       
     e( 14 - 14) =     12.86817  eV     1   --> A_1  L_1       
     e( 15 - 16) =     15.52103  eV     2   --> E    L_3       
     e( 17 - 18) =     19.22663  eV     2   --> E    L_3       
     e( 19 - 19) =     19.30095  eV     1   --> A_1  L_1       
     e( 20 - 21) =     22.44116  eV     2   --> E    L_3       
     e( 22 - 22) =     24.70403  eV     1   --> A_1  L_1       
     e( 23 - 23) =     28.44267  eV     1   --> A_1  L_1       
     e( 24 - 25) =     28.64985  eV     2   --> E    L_3       
     e( 26 - 27) =     30.18470  eV     2   --> E    L_3       
     e( 28 - 28) =     31.73527  eV     1   --> A_1  L_1       
     e( 29 - 29) =     35.04751  eV     1   --> A_1  L_1       
     e( 30 - 31) =     38.71985  eV     2   --> E    L_3       
     e( 32 - 33) =     39.10833  eV     2   --> E    L_3       
     e( 34 - 34) =     41.16018  eV     1   --> A_1  L_1       
     e( 35 - 35) =     41.31992  eV     1   --> A_2  L_2       
     e( 36 - 37) =     43.93039  eV     2   --> E    L_3       
     e( 38 - 38) =     45.03779  eV     1   --> A_1  L_1       
     e( 39 - 40) =     45.65962  eV     2   --> E    L_3       

 **************************************************************************

 **************************************************************************

                    xk=(   0.20623,   0.20623,   0.20623  )

     Band symmetry, C_3v (3m)   point group:

     e(  1 -  1) =    -48.92839  eV     1   --> A_1  L_1       
     e(  2 -  2) =    -48.88170  eV     1   --> A_1  L_1       
     e(  3 -  3) =    -19.22680  eV     1   --> A_1  L_1       
     e(  4 -  5) =    -19.20674  eV     2   --> E    L_3       
     e(  6 -  6) =    -19.11755  eV     1   --> A_1  L_1       
     e(  7 -  8) =    -19.08560  eV     2   --> E    L_3       
     e(  9 -  9) =    -12.13195  eV     1   --> A_1  L_1       
     e( 10 - 10) =      2.50065  eV     1   --> A_1  L_1       
     e( 11 - 12) =      3.50864  eV     2   --> E    L_3       
     e( 13 - 13) =      8.19317  eV     1   --> A_1  L_1       
     e( 14 - 14) =     13.49454  eV     1   --> A_1  L_1       
     e( 15 - 16) =     15.72287  eV     2   --> E    L_3       
     e( 17 - 18) =     18.96036  eV     2   --> E    L_3       
     e( 19 - 19) =     19.15331  eV     1   --> A_1  L_1       
     e( 20 - 21) =     22.03043  eV     2   --> E    L_3       
     e( 22 - 22) =     25.12488  eV     1   --> A_1  L_1       
     e( 23 - 23) =     27.61411  eV     1   --> A_1  L_1       
     e( 24 - 25) =     29.27722  eV     2   --> E    L_3       
     e( 26 - 27) =     29.87098  eV     2   --> E    L_3       
     e( 28 - 28) =     30.84005  eV     1   --> A_1  L_1       
     e( 29 - 29) =     35.49806  eV     1   --> A_1  L_1       
     e( 30 - 31) =     38.40949  eV     2   --> E    L_3       
     e( 32 - 33) =     40.43362  eV     2   --> E    L_3       
     e( 34 - 34) =     40.92958  eV     1   --> A_2  L_2       
     e( 35 - 35) =     42.30968  eV     1   --> A_1  L_1       
     e( 36 - 37) =     44.73616  eV     2   --> E    L_3       
     e( 38 - 38) =     44.76832  eV     1   --> A_1  L_1       
     e( 39 - 40) =     45.76538  eV     2   --> E    L_3       

 **************************************************************************

 **************************************************************************

                    xk=(   0.17675,   0.17675,   0.17675  )

     Band symmetry, C_3v (3m)   point group:

     e(  1 -  1) =    -48.93230  eV     1   --> A_1  L_1       
     e(  2 -  2) =    -48.87806  eV     1   --> A_1  L_1       
     e(  3 -  3) =    -19.23056  eV     1   --> A_1  L_1       
     e(  4 -  5) =    -19.21578  eV     2   --> E    L_3       
     e(  6 -  6) =    -19.10192  eV     1   --> A_1  L_1       
     e(  7 -  8) =    -19.07512  eV     2   --> E    L_3       
     e(  9 -  9) =    -12.15880  eV     1   --> A_1  L_1       
     e( 10 - 10) =      2.64918  eV     1   --> A_1  L_1       
     e( 11 - 12) =      3.51291  eV     2   --> E    L_3       
     e( 13 - 13) =      7.76067  eV     1   --> A_1  L_1       
     e( 14 - 14) =     14.14667  eV     1   --> A_1  L_1       
     e( 15 - 16) =     15.96832  eV     2   --> E    L_3       
     e( 17 - 18) =     18.69952  eV     2   --> E    L_3       
     e( 19 - 19) =     19.03174  eV     1   --> A_1  L_1       
     e( 20 - 21) =     21.57171  eV     2   --> E    L_3       
     e( 22 - 22) =     25.38691  eV     1   --> A_1  L_1       
     e( 23 - 23) =     26.96205  eV     1   --> A_1  L_1       
     e( 24 - 25) =     29.01862  eV     2   --> E    L_3       
     e( 26 - 26) =     30.03116  eV     1   --> A_1  L_1       
     e( 27 - 28) =     30.64174  eV     2   --> E    L_3       
     e( 29 - 29) =     35.82810  eV     1   --> A_1  L_1       
     e( 30 - 31) =     38.10221  eV     2   --> E    L_3       
     e( 32 - 32) =     40.58997  eV     1   --> A_2  L_2       
     e( 33 - 34) =     41.83972  eV     2   --> E    L_3       
     e( 35 - 35) =     43.22955  eV     1   --> A_1  L_1       
     e( 36 - 36) =     44.56847  eV     1   --> A_1  L_1       
     e( 37 - 38) =     45.59720  eV     2   --> E    L_3       
     e( 39 - 40) =     45.78862  eV     2   --> E    L_3       

 **************************************************************************

 **************************************************************************

                    xk=(   0.14727,   0.14727,   0.14727  )

     Band symmetry, C_3v (3m)   point group:

     e(  1 -  1) =    -48.93574  eV     1   --> A_1  L_1       
     e(  2 -  2) =    -48.87487  eV     1   --> A_1  L_1       
     e(  3 -  3) =    -19.23392  eV     1   --> A_1  L_1       
     e(  4 -  5) =    -19.22361  eV     2   --> E    L_3       
     e(  6 -  6) =    -19.08659  eV     1   --> A_1  L_1       
     e(  7 -  8) =    -19.06585  eV     2   --> E    L_3       
     e(  9 -  9) =    -12.18582  eV     1   --> A_1  L_1       
     e( 10 - 10) =      2.81870  eV     1   --> A_1  L_1       
     e( 11 - 12) =      3.51716  eV     2   --> E    L_3       
     e( 13 - 13) =      7.34555  eV     1   --> A_1  L_1       
     e( 14 - 14) =     14.81676  eV     1   --> A_1  L_1       
     e( 15 - 16) =     16.25499  eV     2   --> E    L_3       
     e( 17 - 18) =     18.46139  eV     2   --> E    L_3       
     e( 19 - 19) =     18.93507  eV     1   --> A_1  L_1       
     e( 20 - 21) =     21.07514  eV     2   --> E    L_3       
     e( 22 - 22) =     25.14349  eV     1   --> A_1  L_1       
     e( 23 - 23) =     26.82602  eV     1   --> A_1  L_1       
     e( 24 - 25) =     28.67068  eV     2   --> E    L_3       
     e( 26 - 26) =     29.31919  eV     1   --> A_1  L_1       
     e( 27 - 28) =     31.67732  eV     2   --> E    L_3       
     e( 29 - 29) =     36.03862  eV     1   --> A_1  L_1       
     e( 30 - 31) =     37.84400  eV     2   --> E    L_3       
     e( 32 - 32) =     40.30241  eV     1   --> A_2  L_2       
     e( 33 - 34) =     43.24388  eV     2   --> E    L_3       
     e( 35 - 35) =     43.56364  eV     1   --> A_1  L_1       
     e( 36 - 36) =     44.81264  eV     1   --> A_1  L_1       
     e( 37 - 38) =     45.44576  eV     2   --> E    L_3       
     e( 39 - 40) =     46.51445  eV     2   --> E    L_3       

 **************************************************************************

 **************************************************************************

                    xk=(   0.11786,   0.11786,   0.11786  )

     Band symmetry, C_3v (3m)   point group:

     e(  1 -  1) =    -48.93865  eV     1   --> A_1  L_1       
     e(  2 -  2) =    -48.87221  eV     1   --> A_1  L_1       
     e(  3 -  3) =    -19.23680  eV     1   --> A_1  L_1       
     e(  4 -  5) =    -19.23012  eV     2   --> E    L_3       
     e(  6 -  6) =    -19.07248  eV     1   --> A_1  L_1       
     e(  7 -  8) =    -19.05799  eV     2   --> E    L_3       
     e(  9 -  9) =    -12.21110  eV     1   --> A_1  L_1       
     e( 10 - 10) =      3.00203  eV     1   --> A_1  L_1       
     e( 11 - 12) =      3.52110  eV     2   --> E    L_3       
     e( 13 - 13) =      6.95728  eV     1   --> A_1  L_1       
     e( 14 - 14) =     15.49307  eV     1   --> A_1  L_1       
     e( 15 - 16) =     16.57830  eV     2   --> E    L_3       
     e( 17 - 18) =     18.25961  eV     2   --> E    L_3       
     e( 19 - 19) =     18.85180  eV     1   --> A_1  L_1       
     e( 20 - 21) =     20.55460  eV     2   --> E    L_3       
     e( 22 - 22) =     24.50809  eV     1   --> A_1  L_1       
     e( 23 - 23) =     27.09195  eV     1   --> A_1  L_1       
     e( 24 - 25) =     28.39599  eV     2   --> E    L_3       
     e( 26 - 26) =     28.71464  eV     1   --> A_1  L_1       
     e( 27 - 28) =     32.78436  eV     2   --> E    L_3       
     e( 29 - 29) =     36.14835  eV     1   --> A_1  L_1       
     e( 30 - 31) =     37.64452  eV     2   --> E    L_3       
     e( 32 - 32) =     40.06756  eV     1   --> A_2  L_2       
     e( 33 - 33) =     43.40019  eV     1   --> A_1  L_1       
     e( 34 - 35) =     44.42914  eV     2   --> E    L_3       
     e( 36 - 37) =     44.58487  eV     2   --> E    L_3       
     e( 38 - 38) =     45.47309  eV     1   --> A_1  L_1       
     e( 39 - 40) =     47.15982  eV     2   --> E    L_3       

 **************************************************************************

 **************************************************************************

                    xk=(   0.08837,   0.08837,   0.08837  )

     Band symmetry, C_3v (3m)   point group:

     e(  1 -  1) =    -48.94098  eV     1   --> A_1  L_1       
     e(  2 -  2) =    -48.87009  eV     1   --> A_1  L_1       
     e(  3 -  3) =    -19.23915  eV     1   --> A_1  L_1       
     e(  4 -  5) =    -19.23528  eV     2   --> E    L_3       
     e(  6 -  6) =    -19.06039  eV     1   --> A_1  L_1       
     e(  7 -  8) =    -19.05168  eV     2   --> E    L_3       
     e(  9 -  9) =    -12.23298  eV     1   --> A_1  L_1       
     e( 10 - 10) =      3.18837  eV     1   --> A_1  L_1       
     e( 11 - 12) =      3.52449  eV     2   --> E    L_3       
     e( 13 - 13) =      6.60788  eV     1   --> A_1  L_1       
     e( 14 - 14) =     16.16229  eV     1   --> A_1  L_1       
     e( 15 - 16) =     16.93104  eV     2   --> E    L_3       
     e( 17 - 18) =     18.10663  eV     2   --> E    L_3       
     e( 19 - 19) =     18.75993  eV     1   --> A_1  L_1       
     e( 20 - 21) =     20.02240  eV     2   --> E    L_3       
     e( 22 - 22) =     23.82629  eV     1   --> A_1  L_1       
     e( 23 - 23) =     27.42134  eV     1   --> A_1  L_1       
     e( 24 - 25) =     28.19399  eV     2   --> E    L_3       
     e( 26 - 26) =     28.22527  eV     1   --> A_1  L_1       
     e( 27 - 28) =     33.92607  eV     2   --> E    L_3       
     e( 29 - 29) =     36.18704  eV     1   --> A_1  L_1       
     e( 30 - 31) =     37.51908  eV     2   --> E    L_3       
     e( 32 - 32) =     39.88438  eV     1   --> A_2  L_2       
     e( 33 - 34) =     43.08097  eV     2   --> E    L_3       
     e( 35 - 35) =     43.16125  eV     1   --> A_1  L_1       
     e( 36 - 37) =     45.72441  eV     2   --> E    L_3       
     e( 38 - 38) =     46.18322  eV     1   --> A_1  L_1       
     e( 39 - 40) =     47.25277  eV     2   --> E    L_3       

 **************************************************************************

 **************************************************************************

                    xk=(   0.05889,   0.05889,   0.05889  )

     Band symmetry, C_3v (3m)   point group:

     e(  1 -  1) =    -48.94267  eV     1   --> A_1  L_1       
     e(  2 -  2) =    -48.86855  eV     1   --> A_1  L_1       
     e(  3 -  3) =    -19.24089  eV     1   --> A_1  L_1       
     e(  4 -  5) =    -19.23900  eV     2   --> E    L_3       
     e(  6 -  6) =    -19.05114  eV     1   --> A_1  L_1       
     e(  7 -  8) =    -19.04707  eV     2   --> E    L_3       
     e(  9 -  9) =    -12.24984  eV     1   --> A_1  L_1       
     e( 10 - 10) =      3.35793  eV     1   --> A_1  L_1       
     e( 11 - 12) =      3.52708  eV     2   --> E    L_3       
     e( 13 - 13) =      6.31992  eV     1   --> A_1  L_1       
     e( 14 - 14) =     16.79456  eV     1   --> A_1  L_1       
     e( 15 - 16) =     17.28524  eV     2   --> E    L_3       
     e( 17 - 18) =     18.02935  eV     2   --> E    L_3       
     e( 19 - 19) =     18.63009  eV     1   --> A_1  L_1       
     e( 20 - 21) =     19.49656  eV     2   --> E    L_3       
     e( 22 - 22) =     23.23985  eV     1   --> A_1  L_1       
     e( 23 - 23) =     27.69787  eV     1   --> A_1  L_1       
     e( 24 - 24) =     27.86504  eV     1   --> A_1  L_1       
     e( 25 - 26) =     28.05735  eV     2   --> E    L_3       
     e( 27 - 28) =     35.02464  eV     2   --> E    L_3       
     e( 29 - 29) =     36.18602  eV     1   --> A_1  L_1       
     e( 30 - 31) =     37.51568  eV     2   --> E    L_3       
     e( 32 - 32) =     39.75354  eV     1   --> A_2  L_2       
     e( 33 - 34) =     41.67202  eV     2   --> E    L_3       
     e( 35 - 35) =     42.95904  eV     1   --> A_1  L_1       
     e( 36 - 37) =     46.56464  eV     2   --> E    L_3       
     e( 38 - 38) =     46.82776  eV     1   --> A_1  L_1       
     e( 39 - 40) =     47.37245  eV     2   --> E    L_3       

 **************************************************************************

 **************************************************************************

                    xk=(   0.02948,   0.02948,   0.02948  )

     Band symmetry, C_3v (3m)   point group:

     e(  1 -  1) =    -48.94370  eV     1   --> A_1  L_1       
     e(  2 -  2) =    -48.86762  eV     1   --> A_1  L_1       
     e(  3 -  3) =    -19.24195  eV     1   --> A_1  L_1       
     e(  4 -  5) =    -19.24124  eV     2   --> E    L_3       
     e(  6 -  6) =    -19.04534  eV     1   --> A_1  L_1       
     e(  7 -  8) =    -19.04428  eV     2   --> E    L_3       
     e(  9 -  9) =    -12.26045  eV     1   --> A_1  L_1       
     e( 10 - 10) =      3.48166  eV     1   --> A_1  L_1       
     e( 11 - 12) =      3.52870  eV     2   --> E    L_3       
     e( 13 - 13) =      6.12445  eV     1   --> A_1  L_1       
     e( 14 - 14) =     17.33277  eV     1   --> A_1  L_1       
     e( 15 - 16) =     17.54380  eV     2   --> E    L_3       
     e( 17 - 18) =     18.11003  eV     2   --> E    L_3       
     e( 19 - 19) =     18.44304  eV     1   --> A_1  L_1       
     e( 20 - 21) =     19.00369  eV     2   --> E    L_3       
     e( 22 - 22) =     22.83873  eV     1   --> A_1  L_1       
     e( 23 - 23) =     27.64105  eV     1   --> A_1  L_1       
     e( 24 - 24) =     27.88116  eV     1   --> A_1  L_1       
     e( 25 - 26) =     27.97877  eV     2   --> E    L_3       
     e( 27 - 28) =     35.86787  eV     2   --> E    L_3       
     e( 29 - 29) =     36.17291  eV     1   --> A_1  L_1       
     e( 30 - 31) =     37.76863  eV     2   --> E    L_3       
     e( 32 - 32) =     39.67520  eV     1   --> A_2  L_2       
     e( 33 - 34) =     40.37190  eV     2   --> E    L_3       
     e( 35 - 35) =     42.82791  eV     1   --> A_1  L_1       
     e( 36 - 37) =     47.04215  eV     2   --> E    L_3       
     e( 38 - 38) =     47.30312  eV     1   --> A_1  L_1       
     e( 39 - 40) =     47.46931  eV     2   --> E    L_3       

 **************************************************************************

 **************************************************************************

                    xk=(   0.00000,   0.00000,   0.00000  )

     point group D_3d (-3m) 
     there are  6 classes
     the character table:

       E     2C3   3C2'  i     2S6   3s_d 
A_1g   1.00  1.00  1.00  1.00  1.00  1.00
A_2g   1.00  1.00 -1.00  1.00  1.00 -1.00
E_g    2.00 -1.00  0.00  2.00 -1.00  0.00
A_1u   1.00  1.00  1.00 -1.00 -1.00 -1.00
A_2u   1.00  1.00 -1.00 -1.00 -1.00  1.00
E_u    2.00 -1.00  0.00 -2.00  1.00  0.00

     the symmetry operations in each class and the name of the first element:

     E        1
                                                                 
     2C3      5    6
                                                                 
     3C2'     2    4    3
                                                                 
     i        7
                                                                 
     2S6     11   12
                                                                 
     3s_d     8   10    9
                                                                 

     Band symmetry, D_3d (-3m)  point group:

     e(  1 -  1) =    -48.94405  eV     1   --> A_1g L_1       
     e(  2 -  2) =    -48.86731  eV     1   --> A_2u L_2'      
     e(  3 -  3) =    -19.24232  eV     1   --> A_1g L_1       
     e(  4 -  5) =    -19.24199  eV     2   --> E_g  L_3       
     e(  6 -  8) =    -19.04335  eV     3   --> A_2u L_2'      
     e(  6 -  8) =    -19.04335  eV     3   --> E_u  L_3'      
     e(  9 -  9) =    -12.26409  eV     1   --> A_1g L_1       
     e( 10 - 10) =      3.52815  eV     1   --> A_2u L_2'      
     e( 11 - 12) =      3.52926  eV     2   --> E_u  L_3'      
     e( 13 - 13) =      6.05383  eV     1   --> A_1g L_1       
     e( 14 - 14) =     17.60282  eV     1   --> A_1g L_1       
     e( 15 - 16) =     17.61332  eV     2   --> E_g  L_3       
     e( 17 - 17) =     18.30111  eV     1   --> A_2u L_2'      
     e( 18 - 19) =     18.30700  eV     2   --> E_u  L_3'      
     e( 20 - 21) =     18.68505  eV     2   --> E_g  L_3       
     e( 22 - 22) =     22.69426  eV     1   --> A_1g L_1       
     e( 23 - 23) =     27.56625  eV     1   --> A_2u L_2'      
     e( 24 - 24) =     27.94379  eV     1   --> A_2u L_2'      
     e( 25 - 26) =     27.95304  eV     2   --> E_u  L_3'      
     e( 27 - 28) =     36.16279  eV     2   --> E_g  L_3       
     e( 29 - 29) =     36.16632  eV     1   --> A_1g L_1       
     e( 30 - 31) =     38.14455  eV     2   --> E_g  L_3       
     e( 32 - 33) =     39.63087  eV     2   --> E_u  L_3'      
     e( 34 - 34) =     39.64901  eV     1   --> A_1u L_1'      
     e( 35 - 35) =     42.78249  eV     1   --> A_1g L_1       
     e( 36 - 37) =     47.19165  eV     2   --> E_u  L_3'      
     e( 38 - 38) =     47.48439  eV     1   --> A_2u L_2'      
     e( 39 - 40) =     47.50700  eV     2   --> E_u  L_3'      

 **************************************************************************

 **************************************************************************

                    xk=(   0.04420,  -0.04422,   0.04420  )

     point group C_s (m)    
     there are  2 classes
     the character table:

       E     s    
A'     1.00  1.00
A''    1.00 -1.00

     the symmetry operations in each class and the name of the first element:

     E        1
                                                                 
     s        2
                                                                 

[...]
     e( 14 - 14) =     10.86726  eV     1   --> A_g            
     e( 15 - 15) =     15.15152  eV     1   --> A_g            
     e( 16 - 16) =     15.15664  eV     1   --> B_g            
     e( 17 - 17) =     19.79223  eV     1   --> B_u            
     e( 18 - 18) =     19.87264  eV     1   --> B_u            
     e( 19 - 19) =     19.87997  eV     1   --> A_u            
     e( 20 - 20) =     23.37304  eV     1   --> A_g            
     e( 21 - 21) =     23.38357  eV     1   --> B_g            
     e( 22 - 22) =     23.58047  eV     1   --> A_g            
     e( 23 - 23) =     26.71529  eV     1   --> B_u            
     e( 24 - 24) =     26.72707  eV     1   --> A_u            
     e( 25 - 25) =     31.31079  eV     1   --> B_u            
     e( 26 - 26) =     32.69002  eV     1   --> B_g            
     e( 27 - 27) =     32.69519  eV     1   --> A_g            
     e( 28 - 28) =     32.85597  eV     1   --> A_g            
     e( 29 - 29) =     35.06218  eV     1   --> B_u            
     e( 30 - 30) =     35.06275  eV     1   --> A_u            
     e( 31 - 31) =     35.80102  eV     1   --> B_u            
     e( 32 - 32) =     36.46846  eV     1   --> A_g            
     e( 33 - 33) =     40.12336  eV     1   --> B_g            
     e( 34 - 34) =     40.14264  eV     1   --> A_g            
     e( 35 - 35) =     41.74371  eV     1   --> A_u            
     e( 36 - 36) =     41.76121  eV     1   --> B_u            
     e( 37 - 37) =     43.17733  eV     1   --> A_u            
     e( 38 - 38) =     43.65307  eV     1   --> B_g            
     e( 39 - 39) =     45.35820  eV     1   --> A_g            
     e( 40 - 40) =     45.37666  eV     1   --> B_g            

 **************************************************************************

 **************************************************************************

                    xk=(   0.41252,  -0.29481,   0.29468  )

     point group C_1 (1)    
     there are  1 classes
     the character table:

       E    
A      1.00

     the symmetry operations in each class and the name of the first element:

     E        1
                                                                 

     Band symmetry, C_1 (1)     point group:

     e(  1 -  1) =    -48.90795  eV     1   --> A              
     e(  2 -  2) =    -48.90134  eV     1   --> A              
     e(  3 -  3) =    -19.23553  eV     1   --> A              
     e(  4 -  4) =    -19.19966  eV     1   --> A              
     e(  5 -  5) =    -19.18501  eV     1   --> A              
     e(  6 -  6) =    -19.13052  eV     1   --> A              
     e(  7 -  7) =    -19.11247  eV     1   --> A              
     e(  8 -  8) =    -19.10930  eV     1   --> A              
     e(  9 -  9) =    -12.05194  eV     1   --> A              
     e( 10 - 10) =      2.20217  eV     1   --> A              
     e( 11 - 11) =      3.43379  eV     1   --> A              
     e( 12 - 12) =      3.48122  eV     1   --> A              
     e( 13 - 13) =     10.11496  eV     1   --> A              
     e( 14 - 14) =     11.16072  eV     1   --> A              
     e( 15 - 15) =     14.93932  eV     1   --> A              
     e( 16 - 16) =     15.22253  eV     1   --> A              
     e( 17 - 17) =     19.40630  eV     1   --> A              
     e( 18 - 18) =     19.95963  eV     1   --> A              
     e( 19 - 19) =     20.27413  eV     1   --> A              
     e( 20 - 20) =     23.08019  eV     1   --> A              
     e( 21 - 21) =     23.47259  eV     1   --> A              
     e( 22 - 22) =     24.05615  eV     1   --> A              
     e( 23 - 23) =     26.72319  eV     1   --> A              
     e( 24 - 24) =     26.75400  eV     1   --> A              
     e( 25 - 25) =     30.99398  eV     1   --> A              
     e( 26 - 26) =     31.94694  eV     1   --> A              
     e( 27 - 27) =     32.82097  eV     1   --> A              
     e( 28 - 28) =     33.44006  eV     1   --> A              
     e( 29 - 29) =     34.98349  eV     1   --> A              
     e( 30 - 30) =     35.46682  eV     1   --> A              
     e( 31 - 31) =     35.95416  eV     1   --> A              
     e( 32 - 32) =     37.11587  eV     1   --> A              
     e( 33 - 33) =     38.45378  eV     1   --> A              
     e( 34 - 34) =     40.00715  eV     1   --> A              
     e( 35 - 35) =     40.22450  eV     1   --> A              
     e( 36 - 36) =     41.29986  eV     1   --> A              
     e( 37 - 37) =     44.37428  eV     1   --> A              
     e( 38 - 38) =     44.75403  eV     1   --> A              
     e( 39 - 39) =     45.28299  eV     1   --> A              
     e( 40 - 40) =     45.51740  eV     1   --> A              

 **************************************************************************

 **************************************************************************

                    xk=(   0.47150,  -0.23583,   0.23568  )

     Band symmetry, C_1 (1)     point group:

     e(  1 -  1) =    -48.91095  eV     1   --> A              
     e(  2 -  2) =    -48.89818  eV     1   --> A              
     e(  3 -  3) =    -19.27965  eV     1   --> A              
     e(  4 -  4) =    -19.23454  eV     1   --> A              
     e(  5 -  5) =    -19.21973  eV     1   --> A              
     e(  6 -  6) =    -19.09422  eV     1   --> A              
     e(  7 -  7) =    -19.07981  eV     1   --> A              
     e(  8 -  8) =    -19.06899  eV     1   --> A              
     e(  9 -  9) =    -12.04120  eV     1   --> A              
     e( 10 - 10) =      2.32377  eV     1   --> A              
     e( 11 - 11) =      3.28377  eV     1   --> A              
     e( 12 - 12) =      3.44281  eV     1   --> A              
     e( 13 - 13) =      9.79518  eV     1   --> A              
     e( 14 - 14) =     11.75848  eV     1   --> A              
     e( 15 - 15) =     14.52286  eV     1   --> A              
     e( 16 - 16) =     15.40656  eV     1   --> A              
     e( 17 - 17) =     18.46624  eV     1   --> A              
     e( 18 - 18) =     20.23489  eV     1   --> A              
     e( 19 - 19) =     21.42037  eV     1   --> A              
     e( 20 - 20) =     22.24991  eV     1   --> A              
     e( 21 - 21) =     23.74674  eV     1   --> A              
     e( 22 - 22) =     25.03306  eV     1   --> A              
     e( 23 - 23) =     26.74630  eV     1   --> A              
     e( 24 - 24) =     26.99749  eV     1   --> A              
     e( 25 - 25) =     30.48903  eV     1   --> A              
     e( 26 - 26) =     30.75707  eV     1   --> A              
     e( 27 - 27) =     32.91694  eV     1   --> A              
     e( 28 - 28) =     34.31849  eV     1   --> A              
     e( 29 - 29) =     35.16039  eV     1   --> A              
     e( 30 - 30) =     35.49942  eV     1   --> A              
     e( 31 - 31) =     35.58469  eV     1   --> A              
     e( 32 - 32) =     37.53345  eV     1   --> A              
     e( 33 - 33) =     38.08189  eV     1   --> A              
     e( 34 - 34) =     38.33811  eV     1   --> A              
     e( 35 - 35) =     39.96892  eV     1   --> A              
     e( 36 - 36) =     40.52760  eV     1   --> A              
     e( 37 - 37) =     43.81522  eV     1   --> A              
     e( 38 - 38) =     44.98893  eV     1   --> A              
     e( 39 - 39) =     45.65625  eV     1   --> A              
     e( 40 - 40) =     46.17304  eV     1   --> A              

 **************************************************************************

 **************************************************************************

                    xk=(   0.53042,  -0.17692,   0.17675  )

     Band symmetry, C_1 (1)     point group:

     e(  1 -  1) =    -48.91349  eV     1   --> A              
     e(  2 -  2) =    -48.89545  eV     1   --> A              
     e(  3 -  3) =    -19.32303  eV     1   --> A              
     e(  4 -  4) =    -19.26122  eV     1   --> A              
     e(  5 -  5) =    -19.25007  eV     1   --> A              
     e(  6 -  6) =    -19.06126  eV     1   --> A              
     e(  7 -  7) =    -19.05228  eV     1   --> A              
     e(  8 -  8) =    -19.03519  eV     1   --> A              
     e(  9 -  9) =    -12.02629  eV     1   --> A              
     e( 10 - 10) =      2.45232  eV     1   --> A              
     e( 11 - 11) =      3.14660  eV     1   --> A              
     e( 12 - 12) =      3.39181  eV     1   --> A              
     e( 13 - 13) =      9.44279  eV     1   --> A              
     e( 14 - 14) =     12.48679  eV     1   --> A              
     e( 15 - 15) =     14.21839  eV     1   --> A              
     e( 16 - 16) =     15.63919  eV     1   --> A              
     e( 17 - 17) =     17.50046  eV     1   --> A              
     e( 18 - 18) =     20.74248  eV     1   --> A              
     e( 19 - 19) =     20.96866  eV     1   --> A              
     e( 20 - 20) =     23.10106  eV     1   --> A              
     e( 21 - 21) =     24.14188  eV     1   --> A              
     e( 22 - 22) =     25.89453  eV     1   --> A              
     e( 23 - 23) =     26.80256  eV     1   --> A              
     e( 24 - 24) =     27.58357  eV     1   --> A              
     e( 25 - 25) =     29.62638  eV     1   --> A              
     e( 26 - 26) =     30.04811  eV     1   --> A              
     e( 27 - 27) =     32.77231  eV     1   --> A              
     e( 28 - 28) =     33.13187  eV     1   --> A              
     e( 29 - 29) =     34.54874  eV     1   --> A              
     e( 30 - 30) =     35.61144  eV     1   --> A              
     e( 31 - 31) =     36.04012  eV     1   --> A              
     e( 32 - 32) =     36.82769  eV     1   --> A              
     e( 33 - 33) =     37.63630  eV     1   --> A              
     e( 34 - 34) =     39.61944  eV     1   --> A              
     e( 35 - 35) =     40.05267  eV     1   --> A              
     e( 36 - 36) =     40.53448  eV     1   --> A              
     e( 37 - 37) =     42.86134  eV     1   --> A              
     e( 38 - 38) =     45.00669  eV     1   --> A              
     e( 39 - 39) =     45.29231  eV     1   --> A              
     e( 40 - 40) =     46.10799  eV     1   --> A              

 **************************************************************************

 **************************************************************************

                    xk=(   0.58933,  -0.11801,   0.11782  )

     Band symmetry, C_1 (1)     point group:

     e(  1 -  1) =    -48.91541  eV     1   --> A              
     e(  2 -  2) =    -48.89333  eV     1   --> A              
     e(  3 -  3) =    -19.35879  eV     1   --> A              
     e(  4 -  4) =    -19.27959  eV     1   --> A              
     e(  5 -  5) =    -19.27371  eV     1   --> A              
     e(  6 -  6) =    -19.03565  eV     1   --> A              
     e(  7 -  7) =    -19.03146  eV     1   --> A              
     e(  8 -  8) =    -19.00998  eV     1   --> A              
     e(  9 -  9) =    -12.01108  eV     1   --> A              
     e( 10 - 10) =      2.47635  eV     1   --> A              
     e( 11 - 11) =      3.14727  eV     1   --> A              
     e( 12 - 12) =      3.34236  eV     1   --> A              
     e( 13 - 13) =      9.10314  eV     1   --> A              
     e( 14 - 14) =     13.13325  eV     1   --> A              
     e( 15 - 15) =     14.24890  eV     1   --> A              
     e( 16 - 16) =     15.84727  eV     1   --> A              
     e( 17 - 17) =     16.69538  eV     1   --> A              
     e( 18 - 18) =     19.73210  eV     1   --> A              
     e( 19 - 19) =     21.50137  eV     1   --> A              
     e( 20 - 20) =     24.53481  eV     1   --> A              
     e( 21 - 21) =     24.86726  eV     1   --> A              
     e( 22 - 22) =     26.48195  eV     1   --> A              
     e( 23 - 23) =     26.92056  eV     1   --> A              
     e( 24 - 24) =     28.20379  eV     1   --> A              
     e( 25 - 25) =     28.61375  eV     1   --> A              
     e( 26 - 26) =     29.72683  eV     1   --> A              
     e( 27 - 27) =     31.00299  eV     1   --> A              
     e( 28 - 28) =     32.68419  eV     1   --> A              
     e( 29 - 29) =     34.64573  eV     1   --> A              
     e( 30 - 30) =     34.86808  eV     1   --> A              
     e( 31 - 31) =     35.69500  eV     1   --> A              
     e( 32 - 32) =     36.34550  eV     1   --> A              
     e( 33 - 33) =     38.34174  eV     1   --> A              
     e( 34 - 34) =     38.93305  eV     1   --> A              
     e( 35 - 35) =     41.37933  eV     1   --> A              
     e( 36 - 36) =     42.06079  eV     1   --> A              
     e( 37 - 37) =     42.23718  eV     1   --> A              
     e( 38 - 38) =     44.60344  eV     1   --> A              
     e( 39 - 39) =     45.59280  eV     1   --> A              
     e( 40 - 40) =     45.65551  eV     1   --> A              

 **************************************************************************

 **************************************************************************

                    xk=(   0.64831,  -0.05903,   0.05882  )

     Band symmetry, C_1 (1)     point group:

     e(  1 -  1) =    -48.91660  eV     1   --> A              
     e(  2 -  2) =    -48.89199  eV     1   --> A              
     e(  3 -  3) =    -19.38225  eV     1   --> A              
     e(  4 -  4) =    -19.29022  eV     1   --> A              
     e(  5 -  5) =    -19.28874  eV     1   --> A              
     e(  6 -  6) =    -19.01954  eV     1   --> A              
     e(  7 -  7) =    -19.01849  eV     1   --> A              
     e(  8 -  8) =    -18.99445  eV     1   --> A              
     e(  9 -  9) =    -11.99974  eV     1   --> A              
     e( 10 - 10) =      2.41795  eV     1   --> A              
     e( 11 - 11) =      3.24517  eV     1   --> A              
     e( 12 - 12) =      3.30704  eV     1   --> A              
     e( 13 - 13) =      8.85064  eV     1   --> A              
     e( 14 - 14) =     13.40057  eV     1   --> A              
     e( 15 - 15) =     14.73300  eV     1   --> A              
     e( 16 - 16) =     15.98296  eV     1   --> A              
     e( 17 - 17) =     16.17687  eV     1   --> A              
     e( 18 - 18) =     18.63848  eV     1   --> A              
     e( 19 - 19) =     22.41671  eV     1   --> A              
     e( 20 - 20) =     24.68348  eV     1   --> A              
     e( 21 - 21) =     26.59750  eV     1   --> A              
     e( 22 - 22) =     26.93469  eV     1   --> A              
     e( 23 - 23) =     27.03377  eV     1   --> A              
     e( 24 - 24) =     27.95531  eV     1   --> A              
     e( 25 - 25) =     28.47108  eV     1   --> A              
     e( 26 - 26) =     29.29462  eV     1   --> A              
     e( 27 - 27) =     29.41060  eV     1   --> A              
     e( 28 - 28) =     33.05741  eV     1   --> A              
     e( 29 - 29) =     33.72532  eV     1   --> A              
     e( 30 - 30) =     34.00800  eV     1   --> A              
     e( 31 - 31) =     35.32296  eV     1   --> A              
     e( 32 - 32) =     37.22654  eV     1   --> A              
     e( 33 - 33) =     37.40047  eV     1   --> A              
     e( 34 - 34) =     39.54482  eV     1   --> A              
     e( 35 - 35) =     41.02416  eV     1   --> A              
     e( 36 - 36) =     42.25872  eV     1   --> A              
     e( 37 - 37) =     44.21633  eV     1   --> A              
     e( 38 - 38) =     44.82840  eV     1   --> A              
     e( 39 - 39) =     45.77381  eV     1   --> A              
     e( 40 - 40) =     46.24951  eV     1   --> A              

 **************************************************************************

 **************************************************************************

                    xk=(   0.70722,  -0.00012,  -0.00012  )

     point group C_2h (2/m) 
     there are  4 classes
     the character table:

       E     C2    i     s_h  
A_g    1.00  1.00  1.00  1.00
B_g    1.00 -1.00  1.00 -1.00
A_u    1.00  1.00 -1.00 -1.00
B_u    1.00 -1.00 -1.00  1.00

     the symmetry operations in each class and the name of the first element:

     E        1
                                                                 
     C2       2
                                                                 
     i        3
                                                                 
     s_h      4
                                                                 

     Band symmetry, C_2h (2/m)  point group:

     e(  1 -  1) =    -48.91700  eV     1   --> B_u            
     e(  2 -  2) =    -48.89153  eV     1   --> A_g            
     e(  3 -  3) =    -19.39040  eV     1   --> A_g            
     e(  4 -  4) =    -19.29389  eV     1   --> B_u            
     e(  5 -  5) =    -19.29366  eV     1   --> A_u            
     e(  6 -  7) =    -19.01409  eV     2   --> A_g            
     e(  6 -  7) =    -19.01409  eV     2   --> B_g            
     e(  8 -  8) =    -18.98922  eV     1   --> B_u            
     e(  9 -  9) =    -11.99555  eV     1   --> A_g            
     e( 10 - 10) =      2.38679  eV     1   --> B_u            
     e( 11 - 11) =      3.29433  eV     1   --> B_u            
     e( 12 - 12) =      3.29551  eV     1   --> A_u            
     e( 13 - 13) =      8.75681  eV     1   --> A_g            
     e( 14 - 14) =     13.45057  eV     1   --> B_u            
     e( 15 - 15) =     15.05100  eV     1   --> A_g            
     e( 16 - 16) =     16.02895  eV     1   --> B_u            
     e( 17 - 17) =     16.03354  eV     1   --> A_u            
     e( 18 - 18) =     18.12263  eV     1   --> A_g            
     e( 19 - 19) =     22.97945  eV     1   --> A_u            
     e( 20 - 20) =     24.55089  eV     1   --> B_g            
     e( 21 - 21) =     26.94338  eV     1   --> A_g            
     e( 22 - 22) =     26.94626  eV     1   --> B_g            
     e( 23 - 23) =     28.13236  eV     1   --> B_u            
     e( 24 - 24) =     28.13489  eV     1   --> A_u            
     e( 25 - 25) =     28.43849  eV     1   --> A_g            
     e( 26 - 26) =     28.55084  eV     1   --> A_g            
     e( 27 - 27) =     28.55503  eV     1   --> B_g            
     e( 28 - 28) =     33.27334  eV     1   --> B_u            
     e( 29 - 29) =     33.40219  eV     1   --> B_u            
     e( 30 - 30) =     33.41283  eV     1   --> A_u            
     e( 31 - 31) =     35.89723  eV     1   --> B_u            
     e( 32 - 32) =     36.30334  eV     1   --> A_g            
     e( 33 - 33) =     37.75100  eV     1   --> B_u            
     e( 34 - 34) =     40.00811  eV     1   --> B_u            
     e( 35 - 35) =     40.41448  eV     1   --> A_g            
     e( 36 - 36) =     42.35664  eV     1   --> A_g            
     e( 37 - 37) =     44.96807  eV     1   --> B_g            
     e( 38 - 38) =     45.16690  eV     1   --> A_g            
     e( 39 - 39) =     46.23467  eV     1   --> B_u            
     e( 40 - 40) =     47.11127  eV     1   --> B_u            

 **************************************************************************

     BANDS        :     25.11s CPU   1m 4.70s WALL


   This run was terminated on:  11:35:36   3Nov2024            

=------------------------------------------------------------------------------=
   JOB DONE.
=------------------------------------------------------------------------------=
