
     Program PWSCF v.7.1 starts on  2Nov2024 at 13:16: 9 

     This program is part of the open-source Quantum ESPRESSO suite
     for quantum simulation of materials; please cite
         "P. Giannozzi et al., J. Phys.:Condens. Matter 21 395502 (2009);
         "P. Giannozzi et al., J. Phys.:Condens. Matter 29 465901 (2017);
         "P. Giannozzi et al., J. Chem. Phys. 152 154105 (2020);
          URL http://www.quantum-espresso.org", 
     in publications or presentations arising from this work. More details at
     http://www.quantum-espresso.org/quote

     Parallel version (MPI & OpenMP), running on       4 processor cores
     Number of MPI processes:                 4
     Threads/MPI process:                     1

     MPI processes distributed on     1 nodes
     182587 MiB available memory on the printing compute node when the environment starts

     Waiting for input...
     Reading input from standard input
Warning: card  &IONS ignored
Warning: card     ION_DYNAMICS = 'BFGS' ignored
Warning: card  / ignored
Warning: card  &CELL ignored
Warning: card / ignored

     Current dimensions of program PWSCF are:
     Max number of different atomic species (ntypx) = 10
     Max number of k-points (npk) =  40000
     Max angular momentum in pseudopotentials (lmaxx) =  4

     Atomic positions and unit cell read from directory:
     ./out/1.save/
     Atomic positions from file used, from input discarded


     IMPORTANT: XC functional enforced from input :
     Exchange-correlation= R2SCAN
                           (   0   0   0   0   0 497 498)
     Any further DFT definition will be discarded
     Please, verify this is what you really want

     Message from routine setup:
     using ibrav=0 with symmetry is DISCOURAGED, use correct ibrav instead

     R & G space division:  proc/nbgrp/npool/nimage =       4
     Subspace diagonalization in iterative solution of the eigenvalue problem:
     a serial algorithm will be used


     Parallelization info
     --------------------
     sticks:   dense  smooth     PW     G-vecs:    dense   smooth      PW
     Min         601     601    165                19571    19571    2797
     Max         602     602    166                19575    19575    2799
     Sum        2407    2407    661                78295    78295   11191

     Using Slab Decomposition



     bravais-lattice index     =            0
     lattice parameter (alat)  =       7.3947  a.u.
     unit-cell volume          =     285.7765 (a.u.)^3
     number of atoms/cell      =            3
     number of atomic types    =            2
     number of electrons       =        24.00
     number of Kohn-Sham states=           40
     kinetic-energy cutoff     =     160.0000  Ry
     charge density cutoff     =     640.0000  Ry
     Exchange-correlation= R2SCAN
                           (   0   0   0   0   0 497 498)

     celldm(1)=   7.394656  celldm(2)=   0.000000  celldm(3)=   0.000000
     celldm(4)=   0.000000  celldm(5)=   0.000000  celldm(6)=   0.000000

     crystal axes: (cart. coord. in units of alat)
               a(1) = (   0.707107   0.707107   0.000230 )  
               a(2) = (   0.000230   0.707107   0.707107 )  
               a(3) = (   0.707107   0.000230   0.707107 )  

     reciprocal axes: (cart. coord. in units 2 pi/alat)
               b(1) = (  0.707222  0.707222 -0.707452 )  
               b(2) = ( -0.707452  0.707222  0.707222 )  
               b(3) = (  0.707222 -0.707452  0.707222 )  


     PseudoPot. # 1 for Na read from file:
     /home/haojia/qe_pseudo/Na_ONCV_PBE-1.2.upf
     MD5 check sum: 425b17ce8ead78efa4860b7b3310c7e3
     Pseudo is Norm-conserving, Zval =  9.0
     Generated using ONCVPSP code by D. R. Hamann
     Using radial grid of  602 points,  4 beta functions with: 
                l(1) =   0
                l(2) =   0
                l(3) =   1
                l(4) =   1

     PseudoPot. # 2 for O  read from file:
     /home/haojia/qe_pseudo/O_ONCV_PBE-1.2.upf
     MD5 check sum: e36c48deb68f4e355fffe4602be2c42c
     Pseudo is Norm-conserving, Zval =  6.0
     Generated using ONCVPSP code by D. R. Hamann
     Using radial grid of  602 points,  4 beta functions with: 
                l(1) =   0
                l(2) =   0
                l(3) =   1
                l(4) =   1

     atomic species   valence    mass     pseudopotential
        Na             9.00    22.99000     Na( 1.00)
        O              6.00    15.99900     O ( 1.00)

     12 Sym. Ops., with inversion, found



   Cartesian axes

     site n.     atom                  positions (alat units)
         1           Na  tau(   1) = (   0.3535896   0.3535896   0.3535896  )
         2           O   tau(   2) = (   0.0000000   0.0000000   0.0000000  )
         3           Na  tau(   3) = (  -0.3535896  -0.3535896  -0.3535896  )

     number of k points=    43  Gaussian smearing, width (Ry)=  0.0200
                       cart. coord. in units 2pi/alat
        k(    1) = (   0.0000000   0.0000000   0.0000000), wk =   0.0465116
        k(    2) = (   0.0442014   0.0442014  -0.0442158), wk =   0.0465116
        k(    3) = (   0.0884028   0.0884028  -0.0884316), wk =   0.0465116
        k(    4) = (   0.1326041   0.1326041  -0.1326473), wk =   0.0465116
        k(    5) = (   0.1768055   0.1768055  -0.1768631), wk =   0.0465116
        k(    6) = (   0.2210069   0.2210069  -0.2210789), wk =   0.0465116
        k(    7) = (   0.2652083   0.2652083  -0.2652947), wk =   0.0465116
        k(    8) = (   0.3094096   0.3094096  -0.3095104), wk =   0.0465116
        k(    9) = (   0.3536110   0.3536110  -0.3537262), wk =   0.0465116
        k(   10) = (   0.2651795   0.4420138  -0.2653235), wk =   0.0465116
        k(   11) = (   0.1767479   0.5304165  -0.1769207), wk =   0.0465116
        k(   12) = (   0.0883164   0.6188193  -0.0885179), wk =   0.0465116
        k(   13) = (  -0.0001152   0.7072220  -0.0001152), wk =   0.0465116
        k(   14) = (   0.0882876   0.6187905   0.0882876), wk =   0.0465116
        k(   15) = (   0.1766903   0.5303589   0.1766903), wk =   0.0465116
        k(   16) = (   0.2650931   0.4419274   0.2650931), wk =   0.0465116
        k(   17) = (   0.3534958   0.3534958   0.3534958), wk =   0.0465116
        k(   18) = (   0.3240143   0.3240143   0.3240143), wk =   0.0465116
        k(   19) = (   0.2946034   0.2946034   0.2946034), wk =   0.0465116
        k(   20) = (   0.2651219   0.2651219   0.2651219), wk =   0.0465116
        k(   21) = (   0.2356403   0.2356403   0.2356403), wk =   0.0465116
        k(   22) = (   0.2062295   0.2062295   0.2062295), wk =   0.0465116
        k(   23) = (   0.1767479   0.1767479   0.1767479), wk =   0.0465116
        k(   24) = (   0.1472664   0.1472664   0.1472664), wk =   0.0465116
        k(   25) = (   0.1178555   0.1178555   0.1178555), wk =   0.0465116
        k(   26) = (   0.0883740   0.0883740   0.0883740), wk =   0.0465116
        k(   27) = (   0.0588924   0.0588924   0.0588924), wk =   0.0465116
        k(   28) = (   0.0294816   0.0294816   0.0294816), wk =   0.0465116
        k(   29) = (   0.0000000   0.0000000   0.0000000), wk =   0.0465116
        k(   30) = (   0.0442014  -0.0442158   0.0442014), wk =   0.0465116
        k(   31) = (   0.0884028  -0.0884316   0.0884028), wk =   0.0465116
        k(   32) = (   0.1326041  -0.1326473   0.1326041), wk =   0.0465116
        k(   33) = (   0.1768055  -0.1768631   0.1768055), wk =   0.0465116
        k(   34) = (   0.2210069  -0.2210789   0.2210069), wk =   0.0465116
        k(   35) = (   0.2652083  -0.2652947   0.2652083), wk =   0.0465116
        k(   36) = (   0.3094096  -0.3095104   0.3094096), wk =   0.0465116
        k(   37) = (   0.3536110  -0.3537262   0.3536110), wk =   0.0465116
        k(   38) = (   0.4125226  -0.2948146   0.2946802), wk =   0.0465116
        k(   39) = (   0.4715049  -0.2358323   0.2356787), wk =   0.0465116
        k(   40) = (   0.5304165  -0.1769207   0.1767479), wk =   0.0465116
        k(   41) = (   0.5893281  -0.1180091   0.1178171), wk =   0.0465116
        k(   42) = (   0.6483104  -0.0590268   0.0588156), wk =   0.0465116
        k(   43) = (   0.7072220  -0.0001152  -0.0001152), wk =   0.0465116

     Dense  grid:    78295 G-vectors     FFT dimensions: (  60,  60,  60)

     Estimated max dynamical RAM per process >      19.31 MB

     Estimated total dynamical RAM >      77.24 MB

     WARNING: libxc functional with ID  497 depends
      on external parameters: check the user_guide of
      QE if you need to modify them or to check their
      default values.
     Reading meta-gga kinetic term

     The potential is recalculated from file :
     ./out/1.save/charge-density

     Starting wfcs are random

     Band Structure Calculation
     Davidson diagonalization with overlap

     ethr =  4.17E-09,  avg # of iterations = 27.9

     total cpu time spent up to now is      187.1 secs

     End of band structure calculation

          k = 0.0000 0.0000 0.0000 (  9793 PWs)   bands (ev):

   -48.9440 -48.8673 -19.2423 -19.2420 -19.2420 -19.0433 -19.0433 -19.0433
   -12.2641   3.5281   3.5293   3.5293   6.0538  17.6028  17.6133  17.6133
    18.3011  18.3070  18.3070  18.6851  18.6851  22.6943  27.5662  27.9438
    27.9530  27.9530  36.1628  36.1628  36.1663  38.1445  38.1445  39.6309
    39.6309  39.6490  42.7825  47.1916  47.1916  47.4844  47.5070  47.5070

          k = 0.0442 0.0442-0.0442 (  9757 PWs)   bands (ev):

   -48.9433 -48.8680 -19.2412 -19.2406 -19.2403 -19.0478 -19.0455 -19.0454
   -12.2560   3.4285   3.5270   3.5280   6.2086  17.0889  17.4288  17.4362
    18.0367  18.0419  18.5485  19.2419  19.2441  23.0121  27.7322  27.8146
    28.0034  28.0113  35.5042  35.5111  36.1766  37.5835  37.5932  39.6918
    40.9997  41.0156  42.8835  46.8497  46.8517  47.1124  47.4073  47.4268

          k = 0.0884 0.0884-0.0884 (  9722 PWs)   bands (ev):

   -48.9410 -48.8701 -19.2389 -19.2356 -19.2353 -19.0604 -19.0517 -19.0517
   -12.2329   3.1892   3.5235   3.5244   6.6081  16.1689  16.9247  16.9300
    18.1001  18.1071  18.7644  20.0205  20.0236  23.8291  27.4290  28.1872
    28.1945  28.2268  33.9294  33.9419  36.1846  37.4969  37.5128  39.8685
    43.0840  43.1006  43.1617  45.7329  45.7381  46.1987  47.2360  47.2543

          k = 0.1326 0.1326-0.1326 (  9732 PWs)   bands (ev):

   -48.9373 -48.8735 -19.2352 -19.2273 -19.2270 -19.0793 -19.0618 -19.0617
   -12.1987   2.9100   3.5182   3.5190   7.1479  15.1601  16.4060  16.4109
    18.3486  18.3561  18.8962  20.8150  20.8191  24.8509  26.9442  28.5190
    28.5250  29.0062  32.2253  32.2386  36.1027  37.7129  37.7302  40.1628
    43.5084  43.9356  43.9417  45.0131  45.0303  45.1374  46.9427  46.9547

          k = 0.1768 0.1768-0.1769 (  9751 PWs)   bands (ev):

   -48.9323 -48.8781 -19.2303 -19.2160 -19.2158 -19.1019 -19.0752 -19.0751
   -12.1587   2.6500   3.5119   3.5127   7.7612  14.1508  15.9617  15.9665
    18.6931  18.7007  19.0340  21.5692  21.5745  25.3941  26.9672  29.0170
    29.0214  30.0364  30.6402  30.6534  35.8274  38.0787  38.0965  40.5747
    41.8533  41.8591  43.2418  44.5730  45.5820  45.5988  45.7684  45.7855

          k = 0.2210 0.2210-0.2211 (  9773 PWs)   bands (ev):

   -48.9263 -48.8837 -19.2246 -19.2021 -19.2018 -19.1252 -19.0913 -19.0912
   -12.1190   2.4365   3.5056   3.5063   8.4144  13.1812  15.6095  15.6145
    19.0879  19.0955  19.2257  22.2391  22.2460  24.9286  28.0240  29.0307
    29.0418  29.9330  29.9371  31.2849  35.2873  38.5529  38.5708  39.7602
    39.7655  41.1035  41.7711  44.3082  44.3263  44.9040  45.6922  45.7106

          k = 0.2652 0.2652-0.2653 (  9753 PWs)   bands (ev):

   -48.9195 -48.8901 -19.2182 -19.1858 -19.1856 -19.1462 -19.1094 -19.1093
   -12.0857   2.2808   3.5002   3.5009   9.0924  12.2711  15.3557  15.3607
    19.4665  19.4727  19.4799  22.7961  22.8047  24.2845  27.8987  27.9110
    29.3155  30.8365  30.8368  32.7212  34.4920  37.7420  37.7457  39.1598
    39.1783  39.9330  41.7478  43.1665  43.1846  45.2362  45.5241  45.5388

          k = 0.3094 0.3094-0.3095 (  9771 PWs)   bands (ev):

   -48.9122 -48.8972 -19.2120 -19.1678 -19.1676 -19.1621 -19.1285 -19.1284
   -12.0636   2.1869   3.4966   3.4972   9.7841  11.4370  15.2026  15.2077
    19.6937  19.7628  19.7702  23.2067  23.2166  23.7773  27.0449  27.0568
    30.5624  31.9552  31.9578  33.4967  34.3600  36.0047  36.0064  38.0320
    39.7655  39.7844  42.2152  42.2331  42.5005  44.4478  45.3636  45.4017

          k = 0.3536 0.3536-0.3537 (  9804 PWs)   bands (ev):

   -48.9047 -48.9046 -19.2089 -19.1686 -19.1513 -19.1510 -19.1455 -19.1455
   -12.0558   2.1555   3.4953   3.4959  10.3057  10.8673  15.1515  15.1566
    19.7922  19.8726  19.8800  23.3730  23.3836  23.5805  26.7153  26.7271
    31.3108  32.6900  32.6952  32.8560  35.0622  35.0627  35.8010  36.4685
    40.1234  40.1426  41.7437  41.7612  43.1773  43.6531  45.3582  45.3767

          k = 0.2652 0.4420-0.2653 (  9771 PWs)   bands (ev):

   -48.9095 -48.8997 -19.2571 -19.2180 -19.2027 -19.1124 -19.0956 -19.0885
   -12.0473   2.2564   3.3649   3.4644   9.9610  11.4357  14.7330  15.3037
    18.9584  20.0710  20.7971  22.7057  23.5899  24.5301  26.7321  26.8341
    30.7412  31.3544  32.8914  33.9662  34.9783  35.3662  36.4616  37.4254
    37.6120  38.9746  40.2860  40.7885  44.2988  44.7930  45.6356  46.1331

          k = 0.1767 0.5304-0.1769 (  9778 PWs)   bands (ev):

   -48.9135 -48.8954 -19.3230 -19.2612 -19.2501 -19.0613 -19.0523 -19.0352
   -12.0263   2.4523   3.1466   3.3918   9.4428  12.4868  14.2184  15.6392
    17.5005  20.7425  20.9687  23.1011  24.1419  25.8945  26.8026  27.5836
    29.6264  30.0481  32.7723  33.1319  34.5487  35.6114  36.0401  36.8277
    37.6363  39.6194  40.0527  40.5345  42.8613  45.0067  45.2923  46.1080

          k = 0.0883 0.6188-0.0885 (  9774 PWs)   bands (ev):

   -48.9161 -48.8926 -19.3723 -19.2858 -19.2824 -19.0263 -19.0239 -19.0010
   -12.0047   2.4492   3.1945   3.3223   8.9609  13.3129  14.4565  15.9258
    16.3920  19.1489  21.9547  24.6585  25.7724  26.7038  26.9977  28.1977
    28.3813  29.5539  30.1317  32.8159  34.1176  34.7798  35.0829  36.7867
    38.1213  39.0581  41.5464  41.9296  43.3042  44.6475  45.5564  45.8985

          k =-0.0001 0.7072-0.0001 (  9762 PWs)   bands (ev):

   -48.9170 -48.8915 -19.3904 -19.2939 -19.2937 -19.0141 -19.0141 -18.9892
   -11.9956   2.3868   3.2943   3.2955   8.7568  13.4506  15.0510  16.0289
    16.0335  18.1226  22.9795  24.5509  26.9434  26.9463  28.1324  28.1349
    28.4385  28.5508  28.5550  33.2733  33.4022  33.4128  35.8972  36.3033
    37.7510  40.0081  40.4145  42.3566  44.9681  45.1669  46.2347  47.1113

          k = 0.0883 0.6188 0.0883 (  9768 PWs)   bands (ev):

   -48.9161 -48.8926 -19.3723 -19.2860 -19.2822 -19.0263 -19.0239 -19.0010
   -12.0047   2.4492   3.1934   3.3234   8.9608  13.3131  14.4551  15.9307
    16.3901  19.1474  21.9565  24.6574  25.7748  26.7009  27.0018  28.1967
    28.3721  29.5510  30.1378  32.8060  34.1282  34.7829  35.0781  36.7838
    38.1256  39.0584  41.5472  41.9240  43.2915  44.6448  45.5622  45.9178

          k = 0.1767 0.5304 0.1767 (  9778 PWs)   bands (ev):

   -48.9135 -48.8954 -19.3231 -19.2613 -19.2499 -19.0613 -19.0522 -19.0352
   -12.0264   2.4518   3.1463   3.3929   9.4424  12.4859  14.2187  15.6446
    17.4993  20.7453  20.9656  23.1031  24.1414  25.8905  26.8060  27.5782
    29.6229  30.0396  32.7665  33.1379  34.5407  35.6037  36.0506  36.8291
    37.6355  39.6154  40.0397  40.5420  42.8722  44.9935  45.3140  46.1241

          k = 0.2651 0.4419 0.2651 (  9770 PWs)   bands (ev):

   -48.9095 -48.8997 -19.2572 -19.2181 -19.2026 -19.1124 -19.0955 -19.0885
   -12.0475   2.2555   3.3652   3.4654   9.9601  11.4344  14.7353  15.3097
    18.9577  20.0743  20.7974  22.7014  23.5893  24.5232  26.7365  26.8317
    30.7318  31.3472  32.8869  33.9634  34.9711  35.3557  36.4558  37.4284
    37.5932  38.9834  40.3029  40.8018  44.3070  44.8141  45.6443  46.1502

          k = 0.3535 0.3535 0.3535 (  9804 PWs)   bands (ev):

   -48.9047 -48.9047 -19.2090 -19.1687 -19.1512 -19.1512 -19.1453 -19.1453
   -12.0561   2.1546   3.4964   3.4964  10.3043  10.8661  15.1590  15.1590
    19.7920  19.8781  19.8781  23.3750  23.3750  23.5725  26.7229  26.7229
    31.3000  32.6828  32.6828  32.8611  35.0548  35.0548  35.7904  36.4468
    40.1461  40.1461  41.7638  41.7638  43.1910  43.6651  45.3831  45.3831

          k = 0.3240 0.3240 0.3240 (  9780 PWs)   bands (ev):

   -48.9097 -48.8997 -19.2105 -19.1657 -19.1615 -19.1615 -19.1348 -19.1348
   -12.0595   2.1685   3.4970   3.4970  10.0069  11.1849  15.1817  15.1817
    19.7462  19.8283  19.8283  23.2984  23.2984  23.6623  26.8729  26.8729
    30.9124  32.3002  32.3002  33.2040  34.8922  35.5296  35.5296  37.3972
    39.9656  39.9656  41.9949  41.9949  42.7817  44.1268  45.3907  45.4026

          k = 0.2946 0.2946 0.2946 (  9765 PWs)   bands (ev):

   -48.9147 -48.8948 -19.2141 -19.1738 -19.1738 -19.1577 -19.1220 -19.1220
   -12.0697   2.2103   3.4986   3.4986   9.5531  11.7023  15.2496  15.2496
    19.6257  19.6879  19.6879  23.0932  23.0932  23.9117  27.2879  27.2879
    30.1582  31.5727  31.5727  33.6662  33.9557  36.5327  36.5327  38.6416
    39.5899  39.5899  42.2532  42.5219  42.5219  44.8121  45.3477  45.4592

          k = 0.2651 0.2651 0.2651 (  9753 PWs)   bands (ev):

   -48.9195 -48.8901 -19.2184 -19.1856 -19.1856 -19.1463 -19.1093 -19.1093
   -12.0859   2.2799   3.5012   3.5012   9.0917  12.2688  15.3629  15.3629
    19.4659  19.4781  19.4781  22.7991  22.7991  24.2768  27.9029  27.9029
    29.3098  30.8326  30.8326  32.7110  34.4920  37.7311  37.7311  39.1828
    39.1828  39.9134  41.7621  43.1856  43.1856  45.2436  45.5486  45.5486

          k = 0.2356 0.2356 0.2356 (  9771 PWs)   bands (ev):

   -48.9241 -48.8857 -19.2227 -19.1966 -19.1966 -19.1326 -19.0970 -19.0970
   -12.1071   2.3771   3.5047   3.5047   8.6370  12.8682  15.5210  15.5210
    19.2266  19.2266  19.3009  22.4412  22.4412  24.7040  28.4427  28.6499
    28.6499  30.1847  30.1847  31.7353  35.0475  38.7198  38.7198  39.1083
    39.1083  41.1602  41.3199  43.9304  43.9304  45.0378  45.6596  45.6596

          k = 0.2062 0.2062 0.2062 (  9771 PWs)   bands (ev):

   -48.9284 -48.8817 -19.2268 -19.2067 -19.2067 -19.1175 -19.0856 -19.0856
   -12.1319   2.5007   3.5086   3.5086   8.1932  13.4945  15.7229  15.7229
    18.9604  18.9604  19.1533  22.0304  22.0304  25.1249  27.6141  29.2772
    29.2772  29.8710  29.8710  30.8401  35.4981  38.4095  38.4095  40.4336
    40.4336  40.9296  42.3097  44.7362  44.7362  44.7683  45.7654  45.7654

          k = 0.1767 0.1767 0.1767 (  9759 PWs)   bands (ev):

   -48.9323 -48.8781 -19.2306 -19.2158 -19.2158 -19.1019 -19.0751 -19.0751
   -12.1588   2.6492   3.5129   3.5129   7.7607  14.1467  15.9683  15.9683
    18.6995  18.6995  19.0317  21.5717  21.5717  25.3869  26.9620  29.0186
    29.0186  30.0312  30.6417  30.6417  35.8281  38.1022  38.1022  40.5900
    41.8397  41.8397  43.2295  44.5685  45.5972  45.5972  45.7886  45.7886

          k = 0.1473 0.1473 0.1473 (  9735 PWs)   bands (ev):

   -48.9357 -48.8749 -19.2339 -19.2236 -19.2236 -19.0866 -19.0658 -19.0658
   -12.1858   2.8187   3.5172   3.5172   7.3456  14.8168  16.2550  16.2550
    18.4614  18.4614  18.9351  21.0751  21.0751  25.1435  26.8260  28.6707
    28.6707  29.3192  31.6773  31.6773  36.0386  37.8440  37.8440  40.3024
    43.2439  43.2439  43.5636  44.8126  45.4458  45.4458  46.5144  46.5144

          k = 0.1179 0.1179 0.1179 (  9732 PWs)   bands (ev):

   -48.9386 -48.8722 -19.2368 -19.2301 -19.2301 -19.0725 -19.0580 -19.0580
   -12.2111   3.0020   3.5211   3.5211   6.9573  15.4931  16.5783  16.5783
    18.2596  18.2596  18.8518  20.5546  20.5546  24.5081  27.0920  28.3960
    28.3960  28.7146  32.7844  32.7844  36.1484  37.6445  37.6445  40.0676
    43.4002  44.4291  44.4291  44.5849  44.5849  45.4731  47.1598  47.1598

          k = 0.0884 0.0884 0.0884 (  9718 PWs)   bands (ev):

   -48.9410 -48.8701 -19.2392 -19.2353 -19.2353 -19.0604 -19.0517 -19.0517
   -12.2330   3.1884   3.5245   3.5245   6.6079  16.1623  16.9310  16.9310
    18.1066  18.1066  18.7599  20.0224  20.0224  23.8263  27.4213  28.1940
    28.1940  28.2253  33.9261  33.9261  36.1870  37.5191  37.5191  39.8844
    43.0810  43.0810  43.1612  45.7244  45.7244  46.1832  47.2528  47.2528

          k = 0.0589 0.0589 0.0589 (  9751 PWs)   bands (ev):

   -48.9427 -48.8686 -19.2409 -19.2390 -19.2390 -19.0511 -19.0471 -19.0471
   -12.2498   3.3579   3.5271   3.5271   6.3199  16.7946  17.2852  17.2852
    18.0293  18.0293  18.6301  19.4966  19.4966  23.2399  27.6979  27.8650
    28.0574  28.0574  35.0246  35.0246  36.1860  37.5157  37.5157  39.7535
    41.6720  41.6720  42.9590  46.5646  46.5646  46.8278  47.3724  47.3724

          k = 0.0295 0.0295 0.0295 (  9781 PWs)   bands (ev):

   -48.9437 -48.8676 -19.2420 -19.2412 -19.2412 -19.0453 -19.0443 -19.0443
   -12.2604   3.4817   3.5287   3.5287   6.1245  17.3328  17.5438  17.5438
    18.1100  18.1100  18.4430  19.0037  19.0037  22.8387  27.6411  27.8812
    27.9788  27.9788  35.8679  35.8679  36.1729  37.7686  37.7686  39.6752
    40.3719  40.3719  42.8279  47.0422  47.0422  47.3031  47.4693  47.4693

          k = 0.0000 0.0000 0.0000 (  9793 PWs)   bands (ev):

   -48.9440 -48.8673 -19.2423 -19.2420 -19.2420 -19.0433 -19.0433 -19.0433
   -12.2641   3.5281   3.5293   3.5293   6.0538  17.6028  17.6133  17.6133
    18.3011  18.3070  18.3070  18.6851  18.6851  22.6943  27.5662  27.9438
    27.9530  27.9530  36.1628  36.1628  36.1663  38.1445  38.1445  39.6309
    39.6309  39.6490  42.7825  47.1916  47.1916  47.4844  47.5070  47.5070

          k = 0.0442-0.0442 0.0442 (  9757 PWs)   bands (ev):

   -48.9433 -48.8680 -19.2412 -19.2406 -19.2403 -19.0478 -19.0455 -19.0454
   -12.2560   3.4285   3.5270   3.5280   6.2086  17.0889  17.4288  17.4362
    18.0367  18.0419  18.5485  19.2419  19.2441  23.0121  27.7322  27.8146
    28.0034  28.0113  35.5042  35.5111  36.1766  37.5835  37.5932  39.6918
    40.9997  41.0156  42.8835  46.8497  46.8517  47.1124  47.4073  47.4268

          k = 0.0884-0.0884 0.0884 (  9722 PWs)   bands (ev):

   -48.9410 -48.8701 -19.2389 -19.2356 -19.2353 -19.0604 -19.0517 -19.0517
   -12.2329   3.1892   3.5235   3.5244   6.6081  16.1689  16.9247  16.9300
    18.1001  18.1071  18.7644  20.0205  20.0236  23.8291  27.4290  28.1872
    28.1945  28.2268  33.9294  33.9419  36.1846  37.4969  37.5128  39.8685
    43.0840  43.1006  43.1617  45.7329  45.7381  46.1987  47.2360  47.2543

          k = 0.1326-0.1326 0.1326 (  9732 PWs)   bands (ev):

   -48.9373 -48.8735 -19.2352 -19.2273 -19.2270 -19.0793 -19.0618 -19.0617
   -12.1987   2.9100   3.5182   3.5190   7.1479  15.1601  16.4060  16.4109
    18.3486  18.3561  18.8962  20.8150  20.8191  24.8509  26.9442  28.5190
    28.5250  29.0062  32.2253  32.2386  36.1027  37.7129  37.7302  40.1628
    43.5084  43.9356  43.9417  45.0131  45.0303  45.1374  46.9427  46.9547

          k = 0.1768-0.1769 0.1768 (  9751 PWs)   bands (ev):

   -48.9323 -48.8781 -19.2303 -19.2160 -19.2158 -19.1019 -19.0752 -19.0751
   -12.1587   2.6500   3.5119   3.5127   7.7612  14.1508  15.9617  15.9665
    18.6931  18.7007  19.0340  21.5692  21.5745  25.3941  26.9672  29.0170
    29.0214  30.0364  30.6402  30.6534  35.8274  38.0787  38.0965  40.5747
    41.8533  41.8591  43.2418  44.5730  45.5820  45.5988  45.7684  45.7855

          k = 0.2210-0.2211 0.2210 (  9773 PWs)   bands (ev):

   -48.9263 -48.8837 -19.2246 -19.2021 -19.2018 -19.1252 -19.0913 -19.0912
   -12.1190   2.4365   3.5056   3.5063   8.4144  13.1812  15.6095  15.6145
    19.0879  19.0955  19.2257  22.2391  22.2460  24.9286  28.0240  29.0307
    29.0418  29.9330  29.9371  31.2849  35.2873  38.5529  38.5708  39.7602
    39.7655  41.1035  41.7711  44.3082  44.3263  44.9040  45.6922  45.7106

          k = 0.2652-0.2653 0.2652 (  9753 PWs)   bands (ev):

   -48.9195 -48.8901 -19.2182 -19.1858 -19.1856 -19.1462 -19.1094 -19.1093
   -12.0857   2.2808   3.5002   3.5009   9.0924  12.2711  15.3557  15.3607
    19.4665  19.4727  19.4799  22.7961  22.8047  24.2845  27.8987  27.9110
    29.3155  30.8365  30.8368  32.7212  34.4920  37.7420  37.7457  39.1598
    39.1783  39.9330  41.7478  43.1665  43.1846  45.2362  45.5241  45.5388

          k = 0.3094-0.3095 0.3094 (  9771 PWs)   bands (ev):

   -48.9122 -48.8972 -19.2120 -19.1678 -19.1676 -19.1621 -19.1285 -19.1284
   -12.0636   2.1869   3.4966   3.4972   9.7841  11.4370  15.2026  15.2077
    19.6937  19.7628  19.7702  23.2067  23.2166  23.7773  27.0449  27.0568
    30.5624  31.9552  31.9578  33.4967  34.3600  36.0047  36.0064  38.0320
    39.7655  39.7844  42.2152  42.2331  42.5005  44.4478  45.3636  45.4017

          k = 0.3536-0.3537 0.3536 (  9804 PWs)   bands (ev):

   -48.9047 -48.9046 -19.2089 -19.1686 -19.1513 -19.1510 -19.1455 -19.1455
   -12.0558   2.1555   3.4953   3.4959  10.3057  10.8673  15.1515  15.1566
    19.7922  19.8726  19.8800  23.3730  23.3836  23.5805  26.7153  26.7271
    31.3108  32.6900  32.6952  32.8560  35.0622  35.0627  35.8010  36.4685
    40.1234  40.1426  41.7437  41.7612  43.1773  43.6531  45.3582  45.3767

          k = 0.4125-0.2948 0.2947 (  9778 PWs)   bands (ev):

   -48.9079 -48.9013 -19.2355 -19.1997 -19.1850 -19.1305 -19.1125 -19.1093
   -12.0519   2.2022   3.4338   3.4812  10.1150  11.1607  14.9393  15.2225
    19.4063  19.9596  20.2741  23.0802  23.4726  24.0562  26.7232  26.7540
    30.9940  31.9469  32.8210  33.4401  34.9835  35.4668  35.9542  37.1159
    38.4538  40.0072  40.2245  41.2999  44.3743  44.7540  45.2830  45.5174

          k = 0.4715-0.2358 0.2357 (  9768 PWs)   bands (ev):

   -48.9110 -48.8982 -19.2797 -19.2345 -19.2197 -19.0942 -19.0798 -19.0690
   -12.0412   2.3238   3.2838   3.4428   9.7952  11.7585  14.5229  15.4066
    18.4662  20.2349  21.4204  22.2499  23.7467  25.0331  26.7463  26.9975
    30.4890  30.7571  32.9169  34.3185  35.1604  35.4994  35.5847  37.5334
    38.0819  38.3381  39.9689  40.5276  43.8152  44.9889  45.6563  46.1730

          k = 0.5304-0.1769 0.1767 (  9778 PWs)   bands (ev):

   -48.9135 -48.8954 -19.3230 -19.2612 -19.2501 -19.0613 -19.0523 -19.0352
   -12.0263   2.4523   3.1466   3.3918   9.4428  12.4868  14.2184  15.6392
    17.5005  20.7425  20.9687  23.1011  24.1419  25.8945  26.8026  27.5836
    29.6264  30.0481  32.7723  33.1319  34.5487  35.6114  36.0401  36.8277
    37.6363  39.6194  40.0527  40.5345  42.8613  45.0067  45.2923  46.1080

          k = 0.5893-0.1180 0.1178 (  9772 PWs)   bands (ev):

   -48.9154 -48.8933 -19.3588 -19.2796 -19.2737 -19.0357 -19.0315 -19.0100
   -12.0111   2.4763   3.1473   3.3424   9.1031  13.1333  14.2489  15.8473
    16.6954  19.7321  21.5014  24.5348  24.8673  26.4819  26.9206  28.2038
    28.6137  29.7268  31.0030  32.6842  34.6457  34.8681  35.6950  36.3455
    38.3417  38.9331  41.3793  42.0608  42.2372  44.6034  45.5928  45.6555

          k = 0.6483-0.0590 0.0588 (  9761 PWs)   bands (ev):

   -48.9166 -48.8920 -19.3823 -19.2902 -19.2887 -19.0195 -19.0185 -18.9945
   -11.9997   2.4179   3.2452   3.3070   8.8506  13.4006  14.7330  15.9830
    16.1769  18.6385  22.4167  24.6835  26.5975  26.9347  27.0338  27.9553
    28.4711  29.2946  29.4106  33.0574  33.7253  34.0080  35.3230  37.2265
    37.4005  39.5448  41.0242  42.2587  44.2163  44.8284  45.7738  46.2495

          k = 0.7072-0.0001-0.0001 (  9762 PWs)   bands (ev):

   -48.9170 -48.8915 -19.3904 -19.2939 -19.2937 -19.0141 -19.0141 -18.9892
   -11.9956   2.3868   3.2943   3.2955   8.7568  13.4506  15.0510  16.0289
    16.0335  18.1226  22.9795  24.5509  26.9434  26.9463  28.1324  28.1349
    28.4385  28.5508  28.5550  33.2733  33.4022  33.4128  35.8972  36.3033
    37.7510  40.0081  40.4145  42.3566  44.9681  45.1669  46.2347  47.1113

     the Fermi energy is     4.8538 ev
     (compare with:     4.8799 eV, computed in scf)

     Writing all to output data dir ./out/1.save/

     init_run     :      0.82s CPU      1.30s WALL (       1 calls)
     electrons    :    142.61s CPU    183.37s WALL (       1 calls)

     Called by init_run:
     wfcinit      :      0.00s CPU      0.07s WALL (       1 calls)
     potinit      :      0.06s CPU      0.40s WALL (       1 calls)
     hinit0       :      0.51s CPU      0.55s WALL (       1 calls)

     Called by electrons:
     c_bands      :    142.61s CPU    183.36s WALL (       1 calls)
     v_of_rho     :      0.06s CPU      0.07s WALL (       1 calls)

     Called by c_bands:
     init_us_2    :      0.03s CPU      0.03s WALL (      43 calls)
     init_us_2:cp :      0.03s CPU      0.03s WALL (      43 calls)
     cegterg      :    124.27s CPU    132.50s WALL (      81 calls)

     Called by *egterg:
     cdiaghg      :      2.62s CPU      2.73s WALL (    1244 calls)
     h_psi        :    123.19s CPU    131.67s WALL (    1325 calls)
     g_psi        :      0.28s CPU      0.28s WALL (    1201 calls)

     Called by h_psi:
     h_psi:calbec :      0.47s CPU      0.53s WALL (    1325 calls)
     vloc_psi     :     29.80s CPU     32.26s WALL (    1325 calls)
     add_vuspsi   :      0.50s CPU      0.52s WALL (    1325 calls)
     h_psi_meta   :     92.28s CPU     98.19s WALL (    1325 calls)

     General routines
     calbec       :      0.46s CPU      0.52s WALL (    1325 calls)
     fft          :      0.40s CPU      0.44s WALL (      11 calls)
     fftw         :    108.49s CPU    115.83s WALL (  228280 calls)
     interpolate  :      0.00s CPU      0.00s WALL (       1 calls)
     davcio       :      0.02s CPU      8.49s WALL (      86 calls)

     Parallel routines

     PWSCF        :   2m24.72s CPU   3m14.13s WALL


   This run was terminated on:  13:19:23   2Nov2024            

=------------------------------------------------------------------------------=
   JOB DONE.
=------------------------------------------------------------------------------=
