
     Program BANDS v.6.6 starts on  1Nov2024 at 23:24: 0 

     This program is part of the open-source Quantum ESPRESSO suite
     for quantum simulation of materials; please cite
         "P. Giannozzi et al., J. Phys.:Condens. Matter 21 395502 (2009);
         "P. Giannozzi et al., J. Phys.:Condens. Matter 29 465901 (2017);
          URL http://www.quantum-espresso.org", 
     in publications or presentations arising from this work. More details at
     http://www.quantum-espresso.org/quote

     Parallel version (MPI & OpenMP), running on       4 processor cores
     Number of MPI processes:                 4
     Threads/MPI process:                     1

     MPI processes distributed on     1 nodes
     R & G space division:  proc/nbgrp/npool/nimage =       4
     Fft bands division:     nmany     =       1

     Reading xml data from directory:

     ./out/1.save/

     IMPORTANT: XC functional enforced from input :
     Exchange-correlation= PBE
                           (   1   4   3   4   0   0   0)
     Any further DFT definition will be discarded
     Please, verify this is what you really want


     Parallelization info
     --------------------
     sticks:   dense  smooth     PW     G-vecs:    dense   smooth      PW
     Min         308     250     73                 7118     5217     821
     Max         310     251     74                 7120     5220     823
     Sum        1237    1003    295                28475    20875    3287


     Check: negative core charge=   -0.000003
     Reading collected, re-writing distributed wavefunctions
     high-symmetry point:  0.0000 0.0000 0.0000   x coordinate   0.0000
     high-symmetry point:  0.3536 0.3536-0.3537   x coordinate   0.6125
     high-symmetry point: -0.0001 0.7072-0.0001   x coordinate   1.2251
     high-symmetry point:  0.3535 0.3535 0.3535   x coordinate   1.8376
     high-symmetry point:  0.0000 0.0000 0.0000   x coordinate   2.4499
     high-symmetry point:  0.3536-0.3537 0.3536   x coordinate   3.0625
     high-symmetry point:  0.7072-0.0001-0.0001   x coordinate   3.6750

     Plottable bands (eV) written to file bands.dat.gnu
     Bands written to file bands.dat

 **************************************************************************

                    xk=(   0.00000,   0.00000,   0.00000  )

     point group D_3d (-3m) 
     there are  6 classes
     the character table:

       E     2C3   3C2'  i     2S6   3s_d 
A_1g   1.00  1.00  1.00  1.00  1.00  1.00
A_2g   1.00  1.00 -1.00  1.00  1.00 -1.00
E_g    2.00 -1.00  0.00  2.00 -1.00  0.00
A_1u   1.00  1.00  1.00 -1.00 -1.00 -1.00
A_2u   1.00  1.00 -1.00 -1.00 -1.00  1.00
E_u    2.00 -1.00  0.00 -2.00  1.00  0.00

     the symmetry operations in each class and the name of the first element:

     E        1
                                                                 
     2C3      5    6
                                                                 
     3C2'     2    4    3
                                                                 
     i        7
                                                                 
     2S6     11   12
                                                                 
     3s_d     8   10    9
                                                                 

     Band symmetry, D_3d (-3m)  point group:

     e(  1 -  1) =    -46.85457  eV     1   --> A_1g L_1       
     e(  2 -  2) =    -46.77222  eV     1   --> A_2u L_2'      
     e(  3 -  3) =    -18.85171  eV     1   --> A_1g L_1       
     e(  4 -  5) =    -18.85143  eV     2   --> E_g  L_3       
     e(  6 -  8) =    -18.64888  eV     3   --> A_2u L_2'      
     e(  6 -  8) =    -18.64888  eV     3   --> E_u  L_3'      
     e(  9 -  9) =    -11.50217  eV     1   --> A_1g L_1       
     e( 10 - 10) =      3.13300  eV     1   --> A_2u L_2'      
     e( 11 - 12) =      3.13409  eV     2   --> E_u  L_3'      
     e( 13 - 13) =      5.10507  eV     1   --> A_1g L_1       
     e( 14 - 14) =     15.98539  eV     1   --> A_1g L_1       
     e( 15 - 16) =     15.99563  eV     2   --> E_g  L_3       
     e( 17 - 17) =     17.03284  eV     1   --> A_2u L_2'      
     e( 18 - 19) =     17.03868  eV     2   --> E_u  L_3'      
     e( 20 - 21) =     17.35072  eV     2   --> E_g  L_3       
     e( 22 - 22) =     21.42262  eV     1   --> A_1g L_1       
     e( 23 - 23) =     25.10557  eV     1   --> A_2u L_2'      
     e( 24 - 24) =     25.67308  eV     1   --> A_2u L_2'      
     e( 25 - 26) =     25.68204  eV     2   --> E_u  L_3'      
     e( 27 - 28) =     33.79078  eV     2   --> E_g  L_3       
     e( 29 - 29) =     33.79466  eV     1   --> A_1g L_1       
     e( 30 - 31) =     36.13281  eV     2   --> E_g  L_3       
     e( 32 - 33) =     37.57000  eV     2   --> E_u  L_3'      
     e( 34 - 34) =     37.58818  eV     1   --> A_1u L_1'      
     e( 35 - 35) =     40.62740  eV     1   --> A_1g L_1       
     e( 36 - 37) =     43.73969  eV     2   --> E_u  L_3'      
     e( 38 - 38) =     44.83342  eV     1   --> A_2u L_2'      
     e( 39 - 40) =     44.85625  eV     2   --> E_u  L_3'      

 **************************************************************************

 **************************************************************************

                    xk=(   0.04420,   0.04420,  -0.04422  )

     point group C_s (m)    
     there are  2 classes
     the character table:

       E     s    
A'     1.00  1.00
A''    1.00 -1.00

     the symmetry operations in each class and the name of the first element:

     E        1
                                                                 
     s        2
                                                                 

     Band symmetry, C_s (m)     point group:

     e(  1 -  1) =    -46.85365  eV     1   --> A'             
     e(  2 -  2) =    -46.77298  eV     1   --> A'             
     e(  3 -  3) =    -18.85065  eV     1   --> A'             
     e(  4 -  4) =    -18.84993  eV     1   --> A'             
     e(  5 -  5) =    -18.84970  eV     1   --> A''            
     e(  6 -  6) =    -18.65282  eV     1   --> A'             
     e(  7 -  8) =    -18.65075  eV     2   --> A'             
     e(  7 -  8) =    -18.65075  eV     2   --> A''            
     e(  9 -  9) =    -11.49396  eV     1   --> A'             
     e( 10 - 10) =      3.01875  eV     1   --> A'             
     e( 11 - 11) =      3.13167  eV     1   --> A'             
     e( 12 - 12) =      3.13262  eV     1   --> A''            
     e( 13 - 13) =      5.27097  eV     1   --> A'             
     e( 14 - 14) =     15.58482  eV     1   --> A'             
     e( 15 - 15) =     15.90052  eV     1   --> A'             
     e( 16 - 16) =     15.90867  eV     1   --> A''            
     e( 17 - 17) =     16.68725  eV     1   --> A'             
     e( 18 - 18) =     16.69138  eV     1   --> A''            
     e( 19 - 19) =     17.18132  eV     1   --> A'             
     e( 20 - 20) =     17.88928  eV     1   --> A'             
     e( 21 - 21) =     17.89150  eV     1   --> A''            
     e( 22 - 22) =     21.71882  eV     1   --> A'             
     e( 23 - 23) =     25.26639  eV     1   --> A'             
     e( 24 - 24) =     25.56447  eV     1   --> A'             
     e( 25 - 25) =     25.73970  eV     1   --> A'             
     e( 26 - 26) =     25.74736  eV     1   --> A''            
     e( 27 - 27) =     33.24142  eV     1   --> A'             
     e( 28 - 28) =     33.24623  eV     1   --> A''            
     e( 29 - 29) =     33.79919  eV     1   --> A'             
     e( 30 - 30) =     35.54062  eV     1   --> A''            
     e( 31 - 31) =     35.54846  eV     1   --> A'             
     e( 32 - 32) =     37.62859  eV     1   --> A''            
     e( 33 - 33) =     38.85422  eV     1   --> A'             
     e( 34 - 34) =     38.87002  eV     1   --> A''            
     e( 35 - 35) =     40.70989  eV     1   --> A'             
     e( 36 - 36) =     43.47679  eV     1   --> A''            
     e( 37 - 37) =     43.47820  eV     1   --> A'             
     e( 38 - 38) =     44.52928  eV     1   --> A'             
     e( 39 - 39) =     44.77282  eV     1   --> A'             
     e( 40 - 40) =     44.79279  eV     1   --> A''            

 **************************************************************************

 **************************************************************************

                    xk=(   0.08840,   0.08840,  -0.08843  )

     Band symmetry, C_s (m)     point group:

     e(  1 -  1) =    -46.85114  eV     1   --> A'             
     e(  2 -  2) =    -46.77522  eV     1   --> A'             
     e(  3 -  3) =    -18.84803  eV     1   --> A'             
     e(  4 -  4) =    -18.84489  eV     1   --> A'             
     e(  5 -  5) =    -18.84466  eV     1   --> A''            
     e(  6 -  6) =    -18.66458  eV     1   --> A'             
     e(  7 -  8) =    -18.65704  eV     2   --> A'             
     e(  7 -  8) =    -18.65704  eV     2   --> A''            
     e(  9 -  9) =    -11.47067  eV     1   --> A'             
     e( 10 - 10) =      2.75866  eV     1   --> A'             
     e( 11 - 11) =      3.12731  eV     1   --> A'             
     e( 12 - 12) =      3.12823  eV     1   --> A''            
     e( 13 - 13) =      5.68103  eV     1   --> A'             
     e( 14 - 14) =     14.75675  eV     1   --> A'             
     e( 15 - 15) =     15.55208  eV     1   --> A'             
     e( 16 - 16) =     15.55795  eV     1   --> A''            
     e( 17 - 17) =     16.61538  eV     1   --> A'             
     e( 18 - 18) =     16.62156  eV     1   --> A''            
     e( 19 - 19) =     17.33620  eV     1   --> A'             
     e( 20 - 20) =     18.61650  eV     1   --> A'             
     e( 21 - 21) =     18.61967  eV     1   --> A''            
     e( 22 - 22) =     22.47678  eV     1   --> A'             
     e( 23 - 23) =     25.24648  eV     1   --> A'             
     e( 24 - 24) =     25.74216  eV     1   --> A'             
     e( 25 - 25) =     25.94512  eV     1   --> A'             
     e( 26 - 26) =     25.95204  eV     1   --> A''            
     e( 27 - 27) =     31.83674  eV     1   --> A'             
     e( 28 - 28) =     31.84808  eV     1   --> A''            
     e( 29 - 29) =     33.79521  eV     1   --> A'             
     e( 30 - 30) =     35.36375  eV     1   --> A''            
     e( 31 - 31) =     35.37877  eV     1   --> A'             
     e( 32 - 32) =     37.79825  eV     1   --> A''            
     e( 33 - 33) =     40.82824  eV     1   --> A'             
     e( 34 - 34) =     40.84482  eV     1   --> A''            
     e( 35 - 35) =     40.93703  eV     1   --> A'             
     e( 36 - 36) =     42.62717  eV     1   --> A''            
     e( 37 - 37) =     42.63149  eV     1   --> A'             
     e( 38 - 38) =     43.74517  eV     1   --> A'             
     e( 39 - 39) =     44.63654  eV     1   --> A'             
     e( 40 - 40) =     44.65627  eV     1   --> A''            

 **************************************************************************

 **************************************************************************

                    xk=(   0.13261,   0.13261,  -0.13265  )

     Band symmetry, C_s (m)     point group:

     e(  1 -  1) =    -46.84715  eV     1   --> A'             
     e(  2 -  2) =    -46.77878  eV     1   --> A'             
     e(  3 -  3) =    -18.84358  eV     1   --> A'             
     e(  4 -  4) =    -18.83626  eV     1   --> A'             
     e(  5 -  5) =    -18.83604  eV     1   --> A''            
     e(  6 -  6) =    -18.68284  eV     1   --> A'             
     e(  7 -  8) =    -18.66721  eV     2   --> A'             
     e(  7 -  8) =    -18.66721  eV     2   --> A''            
     e(  9 -  9) =    -11.43602  eV     1   --> A'             
     e( 10 - 10) =      2.46939  eV     1   --> A'             
     e( 11 - 11) =      3.12087  eV     1   --> A'             
     e( 12 - 12) =      3.12172  eV     1   --> A''            
     e( 13 - 13) =      6.21432  eV     1   --> A'             
     e( 14 - 14) =     13.81247  eV     1   --> A'             
     e( 15 - 15) =     15.09913  eV     1   --> A'             
     e( 16 - 16) =     15.10409  eV     1   --> A''            
     e( 17 - 17) =     16.80725  eV     1   --> A'             
     e( 18 - 18) =     16.81438  eV     1   --> A''            
     e( 19 - 19) =     17.43288  eV     1   --> A'             
     e( 20 - 20) =     19.35061  eV     1   --> A'             
     e( 21 - 21) =     19.35488  eV     1   --> A''            
     e( 22 - 22) =     23.35770  eV     1   --> A'             
     e( 23 - 23) =     24.92104  eV     1   --> A'             
     e( 24 - 24) =     26.31509  eV     1   --> A'             
     e( 25 - 25) =     26.32070  eV     1   --> A''            
     e( 26 - 26) =     26.49480  eV     1   --> A'             
     e( 27 - 27) =     30.23676  eV     1   --> A'             
     e( 28 - 28) =     30.24956  eV     1   --> A''            
     e( 29 - 29) =     33.70704  eV     1   --> A'             
     e( 30 - 30) =     35.53452  eV     1   --> A''            
     e( 31 - 31) =     35.55157  eV     1   --> A'             
     e( 32 - 32) =     38.08064  eV     1   --> A''            
     e( 33 - 33) =     41.15704  eV     1   --> A''            
     e( 34 - 34) =     41.16277  eV     1   --> A'             
     e( 35 - 35) =     41.21568  eV     1   --> A'             
     e( 36 - 36) =     42.61490  eV     1   --> A'             
     e( 37 - 37) =     42.63250  eV     1   --> A''            
     e( 38 - 38) =     42.78973  eV     1   --> A'             
     e( 39 - 39) =     44.34167  eV     1   --> A''            
     e( 40 - 40) =     44.35729  eV     1   --> A'             

 **************************************************************************

 **************************************************************************

                    xk=(   0.17681,   0.17681,  -0.17687  )

     Band symmetry, C_s (m)     point group:

     e(  1 -  1) =    -46.84182  eV     1   --> A'             
     e(  2 -  2) =    -46.78371  eV     1   --> A'             
     e(  3 -  3) =    -18.83815  eV     1   --> A'             
     e(  4 -  4) =    -18.82468  eV     1   --> A'             
     e(  5 -  5) =    -18.82448  eV     1   --> A''            
     e(  6 -  6) =    -18.70489  eV     1   --> A'             
     e(  7 -  8) =    -18.68084  eV     2   --> A'             
     e(  7 -  8) =    -18.68084  eV     2   --> A''            
     e(  9 -  9) =    -11.39546  eV     1   --> A'             
     e( 10 - 10) =      2.20786  eV     1   --> A'             
     e( 11 - 11) =      3.11321  eV     1   --> A'             
     e( 12 - 12) =      3.11399  eV     1   --> A''            
     e( 13 - 13) =      6.80737  eV     1   --> A'             
     e( 14 - 14) =     12.85579  eV     1   --> A'             
     e( 15 - 15) =     14.68805  eV     1   --> A'             
     e( 16 - 16) =     14.69280  eV     1   --> A''            
     e( 17 - 17) =     17.11508  eV     1   --> A'             
     e( 18 - 18) =     17.12254  eV     1   --> A''            
     e( 19 - 19) =     17.53907  eV     1   --> A'             
     e( 20 - 20) =     20.04032  eV     1   --> A'             
     e( 21 - 21) =     20.04601  eV     1   --> A''            
     e( 22 - 22) =     23.52985  eV     1   --> A'             
     e( 23 - 23) =     25.32558  eV     1   --> A'             
     e( 24 - 24) =     26.87659  eV     1   --> A'             
     e( 25 - 25) =     26.88042  eV     1   --> A''            
     e( 26 - 26) =     27.50255  eV     1   --> A'             
     e( 27 - 27) =     28.71137  eV     1   --> A'             
     e( 28 - 28) =     28.72438  eV     1   --> A''            
     e( 29 - 29) =     33.44902  eV     1   --> A'             
     e( 30 - 30) =     35.86998  eV     1   --> A''            
     e( 31 - 31) =     35.88775  eV     1   --> A'             
     e( 32 - 32) =     38.47496  eV     1   --> A''            
     e( 33 - 33) =     39.30028  eV     1   --> A''            
     e( 34 - 34) =     39.30634  eV     1   --> A'             
     e( 35 - 35) =     40.92858  eV     1   --> A'             
     e( 36 - 36) =     42.21206  eV     1   --> A'             
     e( 37 - 37) =     42.93928  eV     1   --> A''            
     e( 38 - 38) =     42.95184  eV     1   --> A'             
     e( 39 - 39) =     43.26168  eV     1   --> A'             
     e( 40 - 40) =     43.27574  eV     1   --> A''            

 **************************************************************************

 **************************************************************************

                    xk=(   0.22101,   0.22101,  -0.22108  )

     Band symmetry, C_s (m)     point group:

     e(  1 -  1) =    -46.83540  eV     1   --> A'             
     e(  2 -  2) =    -46.78970  eV     1   --> A'             
     e(  3 -  3) =    -18.83105  eV     1   --> A'             
     e(  4 -  4) =    -18.81028  eV     1   --> A'             
     e(  5 -  5) =    -18.81003  eV     1   --> A''            
     e(  6 -  6) =    -18.72827  eV     1   --> A'             
     e(  7 -  8) =    -18.69728  eV     2   --> A'             
     e(  7 -  8) =    -18.69728  eV     2   --> A''            
     e(  9 -  9) =    -11.35524  eV     1   --> A'             
     e( 10 - 10) =      1.99683  eV     1   --> A'             
     e( 11 - 11) =      3.10555  eV     1   --> A'             
     e( 12 - 12) =      3.10627  eV     1   --> A''            
     e( 13 - 13) =      7.43254  eV     1   --> A'             
     e( 14 - 14) =     11.93174  eV     1   --> A'             
     e( 15 - 15) =     14.35624  eV     1   --> A'             
     e( 16 - 16) =     14.36098  eV     1   --> A''            
     e( 17 - 17) =     17.47418  eV     1   --> A'             
     e( 18 - 18) =     17.48175  eV     1   --> A''            
     e( 19 - 19) =     17.69635  eV     1   --> A'             
     e( 20 - 20) =     20.65142  eV     1   --> A'             
     e( 21 - 21) =     20.65873  eV     1   --> A''            
     e( 22 - 22) =     23.00997  eV     1   --> A'             
     e( 23 - 23) =     26.41760  eV     1   --> A'             
     e( 24 - 24) =     27.19971  eV     1   --> A'             
     e( 25 - 25) =     27.21014  eV     1   --> A''            
     e( 26 - 26) =     27.80530  eV     1   --> A'             
     e( 27 - 27) =     27.80942  eV     1   --> A''            
     e( 28 - 28) =     28.74543  eV     1   --> A'             
     e( 29 - 29) =     32.96622  eV     1   --> A'             
     e( 30 - 30) =     36.32018  eV     1   --> A''            
     e( 31 - 31) =     36.33817  eV     1   --> A'             
     e( 32 - 32) =     37.33788  eV     1   --> A''            
     e( 33 - 33) =     37.34347  eV     1   --> A'             
     e( 34 - 34) =     38.97931  eV     1   --> A''            
     e( 35 - 35) =     39.44616  eV     1   --> A'             
     e( 36 - 36) =     41.75743  eV     1   --> A''            
     e( 37 - 37) =     41.77488  eV     1   --> A'             
     e( 38 - 38) =     42.47912  eV     1   --> A'             
     e( 39 - 39) =     43.13814  eV     1   --> A'             
     e( 40 - 40) =     43.15649  eV     1   --> A''            

 **************************************************************************

 **************************************************************************

                    xk=(   0.26521,   0.26521,  -0.26530  )

     Band symmetry, C_s (m)     point group:

     e(  1 -  1) =    -46.82807  eV     1   --> A'             
     e(  2 -  2) =    -46.79661  eV     1   --> A'             
     e(  3 -  3) =    -18.82268  eV     1   --> A'             
     e(  4 -  4) =    -18.79358  eV     1   --> A'             
     e(  5 -  5) =    -18.79340  eV     1   --> A''            
     e(  6 -  6) =    -18.75029  eV     1   --> A'             
     e(  7 -  8) =    -18.71544  eV     2   --> A'             
     e(  7 -  8) =    -18.71544  eV     2   --> A''            
     e(  9 -  9) =    -11.32141  eV     1   --> A'             
     e( 10 - 10) =      1.84464  eV     1   --> A'             
     e( 11 - 11) =      3.09912  eV     1   --> A'             
     e( 12 - 12) =      3.09977  eV     1   --> A''            
     e( 13 - 13) =      8.08023  eV     1   --> A'             
     e( 14 - 14) =     11.06098  eV     1   --> A'             
     e( 15 - 15) =     14.11515  eV     1   --> A'             
     e( 16 - 16) =     14.11995  eV     1   --> A''            
     e( 17 - 17) =     17.82160  eV     1   --> A'             
     e( 18 - 18) =     17.82917  eV     1   --> A''            
     e( 19 - 19) =     17.90012  eV     1   --> A'             
     e( 20 - 20) =     21.16797  eV     1   --> A'             
     e( 21 - 21) =     21.17682  eV     1   --> A''            
     e( 22 - 22) =     22.42217  eV     1   --> A'             
     e( 23 - 23) =     26.10621  eV     1   --> A'             
     e( 24 - 24) =     26.11849  eV     1   --> A''            
     e( 25 - 25) =     27.59124  eV     1   --> A'             
     e( 26 - 26) =     28.76415  eV     1   --> A''            
     e( 27 - 27) =     28.76442  eV     1   --> A'             
     e( 28 - 28) =     30.19349  eV     1   --> A'             
     e( 29 - 29) =     32.27407  eV     1   --> A'             
     e( 30 - 30) =     35.41485  eV     1   --> A''            
     e( 31 - 31) =     35.41911  eV     1   --> A'             
     e( 32 - 32) =     36.87570  eV     1   --> A''            
     e( 33 - 33) =     36.89423  eV     1   --> A'             
     e( 34 - 34) =     37.58669  eV     1   --> A'             
     e( 35 - 35) =     39.58803  eV     1   --> A''            
     e( 36 - 36) =     40.68659  eV     1   --> A''            
     e( 37 - 37) =     40.70444  eV     1   --> A'             
     e( 38 - 38) =     42.81296  eV     1   --> A'             
     e( 39 - 39) =     42.97083  eV     1   --> A'             
     e( 40 - 40) =     42.98913  eV     1   --> A''            

 **************************************************************************

 **************************************************************************

                    xk=(   0.30941,   0.30941,  -0.30952  )

     Band symmetry, C_s (m)     point group:

     e(  1 -  1) =    -46.82023  eV     1   --> A'             
     e(  2 -  2) =    -46.80418  eV     1   --> A'             
     e(  3 -  3) =    -18.81385  eV     1   --> A'             
     e(  4 -  4) =    -18.77514  eV     1   --> A'             
     e(  5 -  5) =    -18.77496  eV     1   --> A''            
     e(  6 -  6) =    -18.76796  eV     1   --> A'             
     e(  7 -  8) =    -18.73503  eV     2   --> A'             
     e(  7 -  8) =    -18.73503  eV     2   --> A''            
     e(  9 -  9) =    -11.29895  eV     1   --> A'             
     e( 10 - 10) =      1.75342  eV     1   --> A'             
     e( 11 - 11) =      3.09478  eV     1   --> A'             
     e( 12 - 12) =      3.09540  eV     1   --> A''            
     e( 13 - 13) =      8.74926  eV     1   --> A'             
     e( 14 - 14) =     10.25367  eV     1   --> A'             
     e( 15 - 15) =     13.96928  eV     1   --> A'             
     e( 16 - 16) =     13.97413  eV     1   --> A''            
     e( 17 - 17) =     18.08034  eV     1   --> A'             
     e( 18 - 18) =     18.08792  eV     1   --> A''            
     e( 19 - 19) =     18.09310  eV     1   --> A'             
     e( 20 - 20) =     21.56234  eV     1   --> A'             
     e( 21 - 21) =     21.57240  eV     1   --> A''            
     e( 22 - 22) =     21.96953  eV     1   --> A'             
     e( 23 - 23) =     25.26980  eV     1   --> A'             
     e( 24 - 24) =     25.28186  eV     1   --> A''            
     e( 25 - 25) =     28.67367  eV     1   --> A'             
     e( 26 - 26) =     29.95430  eV     1   --> A''            
     e( 27 - 27) =     29.95713  eV     1   --> A'             
     e( 28 - 28) =     31.36343  eV     1   --> A'             
     e( 29 - 29) =     31.90208  eV     1   --> A'             
     e( 30 - 30) =     33.68237  eV     1   --> A''            
     e( 31 - 31) =     33.68496  eV     1   --> A'             
     e( 32 - 32) =     35.68322  eV     1   --> A'             
     e( 33 - 33) =     37.45064  eV     1   --> A''            
     e( 34 - 34) =     37.46946  eV     1   --> A'             
     e( 35 - 35) =     39.79461  eV     1   --> A''            
     e( 36 - 36) =     39.81244  eV     1   --> A'             
     e( 37 - 37) =     40.27581  eV     1   --> A''            
     e( 38 - 38) =     42.33014  eV     1   --> A''            
     e( 39 - 39) =     42.85211  eV     1   --> A'             
     e( 40 - 40) =     42.87074  eV     1   --> A''            

 **************************************************************************

 **************************************************************************

                    xk=(   0.35361,   0.35361,  -0.35373  )

     point group C_2h (2/m) 
     there are  4 classes
     the character table:

       E     C2    i     s_h  
A_g    1.00  1.00  1.00  1.00
B_g    1.00 -1.00  1.00 -1.00
A_u    1.00  1.00 -1.00 -1.00
B_u    1.00 -1.00 -1.00  1.00

     the symmetry operations in each class and the name of the first element:

     E        1
                                                                 
     C2       2
                                                                 
     i        3
                                                                 
     s_h      4
                                                                 

     Band symmetry, C_2h (2/m)  point group:

     e(  1 -  2) =    -46.81222  eV     2   --> A_g            
     e(  1 -  2) =    -46.81222  eV     2   --> B_u            
     e(  3 -  3) =    -18.80910  eV     1   --> A_g            
     e(  4 -  4) =    -18.77607  eV     1   --> B_u            
     e(  5 -  5) =    -18.75786  eV     1   --> B_u            
     e(  6 -  6) =    -18.75765  eV     1   --> A_u            
     e(  7 -  8) =    -18.75283  eV     2   --> A_g            
     e(  7 -  8) =    -18.75283  eV     2   --> B_g            
     e(  9 -  9) =    -11.29109  eV     1   --> A_g            
     e( 10 - 10) =      1.72300  eV     1   --> B_u            
     e( 11 - 11) =      3.09324  eV     1   --> B_u            
     e( 12 - 12) =      3.09384  eV     1   --> A_u            
     e( 13 - 13) =      9.32418  eV     1   --> B_u            
     e( 14 - 14) =      9.63178  eV     1   --> A_g            
     e( 15 - 15) =     13.92049  eV     1   --> A_g            
     e( 16 - 16) =     13.92535  eV     1   --> B_g            
     e( 17 - 17) =     18.17575  eV     1   --> B_u            
     e( 18 - 18) =     18.17804  eV     1   --> B_u            
     e( 19 - 19) =     18.18471  eV     1   --> A_u            
     e( 20 - 20) =     21.72698  eV     1   --> A_g            
     e( 21 - 21) =     21.73766  eV     1   --> B_g            
     e( 22 - 22) =     21.79554  eV     1   --> A_g            
     e( 23 - 23) =     24.94457  eV     1   --> B_u            
     e( 24 - 24) =     24.95645  eV     1   --> A_u            
     e( 25 - 25) =     29.27661  eV     1   --> B_u            
     e( 26 - 26) =     30.79590  eV     1   --> B_g            
     e( 27 - 27) =     30.80141  eV     1   --> A_g            
     e( 28 - 28) =     30.90229  eV     1   --> A_g            
     e( 29 - 29) =     32.65984  eV     1   --> A_u            
     e( 30 - 30) =     32.66003  eV     1   --> B_u            
     e( 31 - 31) =     33.17390  eV     1   --> B_u            
     e( 32 - 32) =     34.25200  eV     1   --> A_g            
     e( 33 - 33) =     37.78486  eV     1   --> B_g            
     e( 34 - 34) =     37.80396  eV     1   --> A_g            
     e( 35 - 35) =     39.35517  eV     1   --> A_u            
     e( 36 - 36) =     39.37279  eV     1   --> B_u            
     e( 37 - 37) =     40.77557  eV     1   --> A_u            
     e( 38 - 38) =     41.71652  eV     1   --> B_g            
     e( 39 - 39) =     42.81030  eV     1   --> A_g            
     e( 40 - 40) =     42.82886  eV     1   --> B_g            

 **************************************************************************

 **************************************************************************

                    xk=(   0.26518,   0.44202,  -0.26533  )

     point group C_1 (1)    
     there are  1 classes
     the character table:

       E    
A      1.00

     the symmetry operations in each class and the name of the first element:

     E        1
                                                                 

     Band symmetry, C_1 (1)     point group:

     e(  1 -  1) =    -46.81736  eV     1   --> A              
     e(  2 -  2) =    -46.80691  eV     1   --> A              
     e(  3 -  3) =    -18.85879  eV     1   --> A              
     e(  4 -  4) =    -18.82622  eV     1   --> A              
     e(  5 -  5) =    -18.81058  eV     1   --> A              
     e(  6 -  6) =    -18.71780  eV     1   --> A              
     e(  7 -  7) =    -18.70168  eV     1   --> A              
     e(  8 -  8) =    -18.69464  eV     1   --> A              
     e(  9 -  9) =    -11.28252  eV     1   --> A              
     e( 10 - 10) =      1.82442  eV     1   --> A              
     e( 11 - 11) =      2.95746  eV     1   --> A              
     e( 12 - 12) =      3.06168  eV     1   --> A              
     e( 13 - 13) =      8.97341  eV     1   --> A              
     e( 14 - 14) =     10.21665  eV     1   --> A              
     e( 15 - 15) =     13.44666  eV     1   --> A              
     e( 16 - 16) =     14.04954  eV     1   --> A              
     e( 17 - 17) =     17.33304  eV     1   --> A              
     e( 18 - 18) =     18.39234  eV     1   --> A              
     e( 19 - 19) =     19.18189  eV     1   --> A              
     e( 20 - 20) =     21.08369  eV     1   --> A              
     e( 21 - 21) =     21.93806  eV     1   --> A              
     e( 22 - 22) =     22.67851  eV     1   --> A              
     e( 23 - 23) =     24.98364  eV     1   --> A              
     e( 24 - 24) =     25.07702  eV     1   --> A              
     e( 25 - 25) =     28.90658  eV     1   --> A              
     e( 26 - 26) =     29.33318  eV     1   --> A              
     e( 27 - 27) =     30.78349  eV     1   --> A              
     e( 28 - 28) =     31.78011  eV     1   --> A              
     e( 29 - 29) =     32.55068  eV     1   --> A              
     e( 30 - 30) =     33.06720  eV     1   --> A              
     e( 31 - 31) =     34.30141  eV     1   --> A              
     e( 32 - 32) =     35.10566  eV     1   --> A              
     e( 33 - 33) =     35.28067  eV     1   --> A              
     e( 34 - 34) =     36.82254  eV     1   --> A              
     e( 35 - 35) =     37.93775  eV     1   --> A              
     e( 36 - 36) =     38.45101  eV     1   --> A              
     e( 37 - 37) =     41.89920  eV     1   --> A              
     e( 38 - 38) =     42.41589  eV     1   --> A              
     e( 39 - 39) =     43.21062  eV     1   --> A              
     e( 40 - 40) =     43.54677  eV     1   --> A              

 **************************************************************************

 **************************************************************************

                    xk=(   0.17675,   0.53042,  -0.17693  )

     Band symmetry, C_1 (1)     point group:

     e(  1 -  1) =    -46.82168  eV     1   --> A              
     e(  2 -  2) =    -46.80232  eV     1   --> A              
     e(  3 -  3) =    -18.92521  eV     1   --> A              
     e(  4 -  4) =    -18.86960  eV     1   --> A              
     e(  5 -  5) =    -18.85853  eV     1   --> A              
     e(  6 -  6) =    -18.66654  eV     1   --> A              
     e(  7 -  7) =    -18.65759  eV     1   --> A              
     e(  8 -  8) =    -18.64030  eV     1   --> A              
     e(  9 -  9) =    -11.26135  eV     1   --> A              
     e( 10 - 10) =      2.02130  eV     1   --> A              
     e( 11 - 11) =      2.73379  eV     1   --> A              
     e( 12 - 12) =      2.98770  eV     1   --> A              
     e( 13 - 13) =      8.50831  eV     1   --> A              
     e( 14 - 14) =     11.22014  eV     1   --> A              
     e( 15 - 15) =     12.85533  eV     1   --> A              
     e( 16 - 16) =     14.32466  eV     1   --> A              
     e( 17 - 17) =     15.95458  eV     1   --> A              
     e( 18 - 18) =     19.10098  eV     1   --> A              
     e( 19 - 19) =     19.39888  eV     1   --> A              
     e( 20 - 20) =     21.50357  eV     1   --> A              
     e( 21 - 21) =     22.49669  eV     1   --> A              
     e( 22 - 22) =     23.95697  eV     1   --> A              
     e( 23 - 23) =     25.09818  eV     1   --> A              
     e( 24 - 24) =     25.76538  eV     1   --> A              
     e( 25 - 25) =     27.57469  eV     1   --> A              
     e( 26 - 26) =     28.33240  eV     1   --> A              
     e( 27 - 27) =     30.61872  eV     1   --> A              
     e( 28 - 28) =     31.13760  eV     1   --> A              
     e( 29 - 29) =     31.95403  eV     1   --> A              
     e( 30 - 30) =     33.43409  eV     1   --> A              
     e( 31 - 31) =     34.00894  eV     1   --> A              
     e( 32 - 32) =     34.44839  eV     1   --> A              
     e( 33 - 33) =     35.41592  eV     1   --> A              
     e( 34 - 34) =     37.22137  eV     1   --> A              
     e( 35 - 35) =     37.57209  eV     1   --> A              
     e( 36 - 36) =     38.22070  eV     1   --> A              
     e( 37 - 37) =     40.58071  eV     1   --> A              
     e( 38 - 38) =     42.48639  eV     1   --> A              
     e( 39 - 39) =     42.89119  eV     1   --> A              
     e( 40 - 40) =     43.57364  eV     1   --> A              

 **************************************************************************

 **************************************************************************

                    xk=(   0.08831,   0.61882,  -0.08852  )

     Band symmetry, C_1 (1)     point group:

     e(  1 -  1) =    -46.82441  eV     1   --> A              
     e(  2 -  2) =    -46.79923  eV     1   --> A              
     e(  3 -  3) =    -18.97402  eV     1   --> A              
     e(  4 -  4) =    -18.89467  eV     1   --> A              
     e(  5 -  5) =    -18.89129  eV     1   --> A              
     e(  6 -  6) =    -18.63111  eV     1   --> A              
     e(  7 -  7) =    -18.62867  eV     1   --> A              
     e(  8 -  8) =    -18.60542  eV     1   --> A              
     e(  9 -  9) =    -11.23949  eV     1   --> A              
     e( 10 - 10) =      2.01824  eV     1   --> A              
     e( 11 - 11) =      2.78514  eV     1   --> A              
     e( 12 - 12) =      2.91705  eV     1   --> A              
     e( 13 - 13) =      8.06047  eV     1   --> A              
     e( 14 - 14) =     11.97417  eV     1   --> A              
     e( 15 - 15) =     13.02016  eV     1   --> A              
     e( 16 - 16) =     14.54920  eV     1   --> A              
     e( 17 - 17) =     14.91971  eV     1   --> A              
     e( 18 - 18) =     17.70294  eV     1   --> A              
     e( 19 - 19) =     20.32200  eV     1   --> A              
     e( 20 - 20) =     23.14188  eV     1   --> A              
     e( 21 - 21) =     24.09159  eV     1   --> A              
     e( 22 - 22) =     24.71065  eV     1   --> A              
     e( 23 - 23) =     25.21289  eV     1   --> A              
     e( 24 - 24) =     26.20944  eV     1   --> A              
     e( 25 - 25) =     26.56329  eV     1   --> A              
     e( 26 - 26) =     27.80816  eV     1   --> A              
     e( 27 - 27) =     28.18430  eV     1   --> A              
     e( 28 - 28) =     30.77671  eV     1   --> A              
     e( 29 - 29) =     32.12429  eV     1   --> A              
     e( 30 - 30) =     32.27664  eV     1   --> A              
     e( 31 - 31) =     32.76380  eV     1   --> A              
     e( 32 - 32) =     34.80652  eV     1   --> A              
     e( 33 - 33) =     35.39177  eV     1   --> A              
     e( 34 - 34) =     36.25085  eV     1   --> A              
     e( 35 - 35) =     39.54441  eV     1   --> A              
     e( 36 - 36) =     39.91527  eV     1   --> A              
     e( 37 - 37) =     40.48140  eV     1   --> A              
     e( 38 - 38) =     42.28071  eV     1   --> A              
     e( 39 - 39) =     42.91622  eV     1   --> A              
     e( 40 - 40) =     43.63162  eV     1   --> A              

 **************************************************************************

 **************************************************************************

                    xk=(  -0.00012,   0.70723,  -0.00012  )

     point group C_2h (2/m) 
     there are  4 classes
     the character table:

       E     C2    i     s_h  
A_g    1.00  1.00  1.00  1.00
B_g    1.00 -1.00  1.00 -1.00
A_u    1.00  1.00 -1.00 -1.00
B_u    1.00 -1.00 -1.00  1.00

     the symmetry operations in each class and the name of the first element:

     E        1
                                                                 
     C2       2
                                                                 
     i        3
                                                                 
     s_h      4
                                                                 

     Band symmetry, C_2h (2/m)  point group:

     e(  1 -  1) =    -46.82530  eV     1   --> B_u            
     e(  2 -  2) =    -46.79812  eV     1   --> A_g            
     e(  3 -  3) =    -18.99168  eV     1   --> A_g            
     e(  4 -  4) =    -18.90285  eV     1   --> B_u            
     e(  5 -  5) =    -18.90266  eV     1   --> A_u            
     e(  6 -  7) =    -18.61849  eV     2   --> A_g            
     e(  6 -  7) =    -18.61849  eV     2   --> B_g            
     e(  8 -  8) =    -18.59349  eV     1   --> B_u            
     e(  9 -  9) =    -11.23024  eV     1   --> A_g            
     e( 10 - 10) =      1.95603  eV     1   --> B_u            
     e( 11 - 11) =      2.88873  eV     1   --> B_u            
     e( 12 - 12) =      2.88993  eV     1   --> A_u            
     e( 13 - 13) =      7.86554  eV     1   --> A_g            
     e( 14 - 14) =     12.07623  eV     1   --> B_u            
     e( 15 - 15) =     13.51342  eV     1   --> A_g            
     e( 16 - 16) =     14.62765  eV     1   --> B_u            
     e( 17 - 17) =     14.63228  eV     1   --> A_u            
     e( 18 - 18) =     16.75861  eV     1   --> A_g            
     e( 19 - 19) =     21.27366  eV     1   --> A_u            
     e( 20 - 20) =     23.27490  eV     1   --> B_g            
     e( 21 - 21) =     24.92761  eV     1   --> A_g            
     e( 22 - 22) =     24.93011  eV     1   --> B_g            
     e( 23 - 23) =     26.20933  eV     1   --> B_u            
     e( 24 - 24) =     26.21212  eV     1   --> A_u            
     e( 25 - 25) =     26.67322  eV     1   --> A_g            
     e( 26 - 26) =     26.67757  eV     1   --> B_g            
     e( 27 - 27) =     26.98102  eV     1   --> A_g            
     e( 28 - 28) =     31.36054  eV     1   --> B_u            
     e( 29 - 29) =     31.41139  eV     1   --> B_u            
     e( 30 - 30) =     31.42151  eV     1   --> A_u            
     e( 31 - 31) =     32.85614  eV     1   --> B_u            
     e( 32 - 32) =     33.66328  eV     1   --> A_g            
     e( 33 - 33) =     35.68442  eV     1   --> B_u            
     e( 34 - 34) =     37.04528  eV     1   --> B_u            
     e( 35 - 35) =     38.56651  eV     1   --> A_g            
     e( 36 - 36) =     40.46821  eV     1   --> A_g            
     e( 37 - 37) =     41.77603  eV     1   --> B_g            
     e( 38 - 38) =     42.74849  eV     1   --> A_g            
     e( 39 - 39) =     43.45964  eV     1   --> B_u            
     e( 40 - 40) =     45.04154  eV     1   --> B_u            

 **************************************************************************

 **************************************************************************

                    xk=(   0.08828,   0.61879,   0.08828  )

     point group C_s (m)    
     there are  2 classes
     the character table:

       E     s    
A'     1.00  1.00
A''    1.00 -1.00

     the symmetry operations in each class and the name of the first element:

     E        1
                                                                 
     s        2
                                                                 

     Band symmetry, C_s (m)     point group:

     e(  1 -  1) =    -46.82441  eV     1   --> A'             
     e(  2 -  2) =    -46.79923  eV     1   --> A'             
     e(  3 -  3) =    -18.97403  eV     1   --> A'             
     e(  4 -  4) =    -18.89484  eV     1   --> A'             
     e(  5 -  5) =    -18.89111  eV     1   --> A''            
     e(  6 -  6) =    -18.63109  eV     1   --> A'             
     e(  7 -  7) =    -18.62868  eV     1   --> A''            
     e(  8 -  8) =    -18.60541  eV     1   --> A'             
     e(  9 -  9) =    -11.23953  eV     1   --> A'             
     e( 10 - 10) =      2.01820  eV     1   --> A'             
     e( 11 - 11) =      2.78405  eV     1   --> A'             
     e( 12 - 12) =      2.91821  eV     1   --> A''            
     e( 13 - 13) =      8.06039  eV     1   --> A'             
     e( 14 - 14) =     11.97443  eV     1   --> A'             
     e( 15 - 15) =     13.01885  eV     1   --> A'             
     e( 16 - 16) =     14.55408  eV     1   --> A''            
     e( 17 - 17) =     14.91750  eV     1   --> A'             
     e( 18 - 18) =     17.70149  eV     1   --> A'             
     e( 19 - 19) =     20.32378  eV     1   --> A''            
     e( 20 - 20) =     23.14088  eV     1   --> A''            
     e( 21 - 21) =     24.09397  eV     1   --> A'             
     e( 22 - 22) =     24.70829  eV     1   --> A'             
     e( 23 - 23) =     25.21742  eV     1   --> A''            
     e( 24 - 24) =     26.20729  eV     1   --> A''            
     e( 25 - 25) =     26.55521  eV     1   --> A'             
     e( 26 - 26) =     27.80451  eV     1   --> A'             
     e( 27 - 27) =     28.19026  eV     1   --> A''            
     e( 28 - 28) =     30.76843  eV     1   --> A'             
     e( 29 - 29) =     32.13483  eV     1   --> A''            
     e( 30 - 30) =     32.26903  eV     1   --> A'             
     e( 31 - 31) =     32.76785  eV     1   --> A'             
     e( 32 - 32) =     34.80336  eV     1   --> A'             
     e( 33 - 33) =     35.39612  eV     1   --> A'             
     e( 34 - 34) =     36.25086  eV     1   --> A'             
     e( 35 - 35) =     39.54705  eV     1   --> A'             
     e( 36 - 36) =     39.90823  eV     1   --> A'             
     e( 37 - 37) =     40.47107  eV     1   --> A''            
     e( 38 - 38) =     42.27734  eV     1   --> A'             
     e( 39 - 39) =     42.92253  eV     1   --> A'             
     e( 40 - 40) =     43.64864  eV     1   --> A''            

 **************************************************************************

 **************************************************************************

                    xk=(   0.17669,   0.53036,   0.17669  )

     Band symmetry, C_s (m)     point group:

     e(  1 -  1) =    -46.82168  eV     1   --> A'             
     e(  2 -  2) =    -46.80233  eV     1   --> A'             
     e(  3 -  3) =    -18.92523  eV     1   --> A'             
     e(  4 -  4) =    -18.86977  eV     1   --> A'             
     e(  5 -  5) =    -18.85837  eV     1   --> A''            
     e(  6 -  6) =    -18.66652  eV     1   --> A'             
     e(  7 -  7) =    -18.65757  eV     1   --> A''            
     e(  8 -  8) =    -18.64028  eV     1   --> A'             
     e(  9 -  9) =    -11.26149  eV     1   --> A'             
     e( 10 - 10) =      2.02073  eV     1   --> A'             
     e( 11 - 11) =      2.73345  eV     1   --> A'             
     e( 12 - 12) =      2.98876  eV     1   --> A''            
     e( 13 - 13) =      8.50790  eV     1   --> A'             
     e( 14 - 14) =     11.21940  eV     1   --> A'             
     e( 15 - 15) =     12.85576  eV     1   --> A'             
     e( 16 - 16) =     14.33014  eV     1   --> A''            
     e( 17 - 17) =     15.95321  eV     1   --> A'             
     e( 18 - 18) =     19.10387  eV     1   --> A''            
     e( 19 - 19) =     19.39578  eV     1   --> A'             
     e( 20 - 20) =     21.50592  eV     1   --> A'             
     e( 21 - 21) =     22.49624  eV     1   --> A''            
     e( 22 - 22) =     23.95336  eV     1   --> A'             
     e( 23 - 23) =     25.10183  eV     1   --> A''            
     e( 24 - 24) =     25.76023  eV     1   --> A'             
     e( 25 - 25) =     27.57035  eV     1   --> A''            
     e( 26 - 26) =     28.32426  eV     1   --> A'             
     e( 27 - 27) =     30.61370  eV     1   --> A'             
     e( 28 - 28) =     31.14357  eV     1   --> A''            
     e( 29 - 29) =     31.94442  eV     1   --> A'             
     e( 30 - 30) =     33.42704  eV     1   --> A'             
     e( 31 - 31) =     34.01923  eV     1   --> A''            
     e( 32 - 32) =     34.44682  eV     1   --> A'             
     e( 33 - 33) =     35.41665  eV     1   --> A'             
     e( 34 - 34) =     37.22353  eV     1   --> A'             
     e( 35 - 35) =     37.55897  eV     1   --> A''            
     e( 36 - 36) =     38.22239  eV     1   --> A'             
     e( 37 - 37) =     40.59173  eV     1   --> A'             
     e( 38 - 38) =     42.47241  eV     1   --> A'             
     e( 39 - 39) =     42.91270  eV     1   --> A''            
     e( 40 - 40) =     43.59081  eV     1   --> A'             

 **************************************************************************

 **************************************************************************

                    xk=(   0.26509,   0.44193,   0.26509  )

     Band symmetry, C_s (m)     point group:

     e(  1 -  1) =    -46.81736  eV     1   --> A'             
     e(  2 -  2) =    -46.80692  eV     1   --> A'             
     e(  3 -  3) =    -18.85888  eV     1   --> A'             
     e(  4 -  4) =    -18.82625  eV     1   --> A'             
     e(  5 -  5) =    -18.81045  eV     1   --> A''            
     e(  6 -  6) =    -18.71780  eV     1   --> A'             
     e(  7 -  7) =    -18.70160  eV     1   --> A''            
     e(  8 -  8) =    -18.69460  eV     1   --> A'             
     e(  9 -  9) =    -11.28275  eV     1   --> A'             
     e( 10 - 10) =      1.82344  eV     1   --> A'             
     e( 11 - 11) =      2.95783  eV     1   --> A'             
     e( 12 - 12) =      3.06264  eV     1   --> A''            
     e( 13 - 13) =      8.97245  eV     1   --> A'             
     e( 14 - 14) =     10.21551  eV     1   --> A'             
     e( 15 - 15) =     13.44914  eV     1   --> A'             
     e( 16 - 16) =     14.05555  eV     1   --> A''            
     e( 17 - 17) =     17.33224  eV     1   --> A'             
     e( 18 - 18) =     18.39578  eV     1   --> A''            
     e( 19 - 19) =     19.18261  eV     1   --> A'             
     e( 20 - 20) =     21.07953  eV     1   --> A'             
     e( 21 - 21) =     21.93744  eV     1   --> A''            
     e( 22 - 22) =     22.67195  eV     1   --> A'             
     e( 23 - 23) =     24.98817  eV     1   --> A''            
     e( 24 - 24) =     25.07460  eV     1   --> A'             
     e( 25 - 25) =     28.89815  eV     1   --> A'             
     e( 26 - 26) =     29.32548  eV     1   --> A''            
     e( 27 - 27) =     30.77818  eV     1   --> A'             
     e( 28 - 28) =     31.77785  eV     1   --> A'             
     e( 29 - 29) =     32.54046  eV     1   --> A'             
     e( 30 - 30) =     33.05945  eV     1   --> A'             
     e( 31 - 31) =     34.29322  eV     1   --> A''            
     e( 32 - 32) =     35.10994  eV     1   --> A''            
     e( 33 - 33) =     35.26100  eV     1   --> A'             
     e( 34 - 34) =     36.83152  eV     1   --> A''            
     e( 35 - 35) =     37.95476  eV     1   --> A'             
     e( 36 - 36) =     38.46410  eV     1   --> A'             
     e( 37 - 37) =     41.90665  eV     1   --> A'             
     e( 38 - 38) =     42.43709  eV     1   --> A''            
     e( 39 - 39) =     43.21816  eV     1   --> A'             
     e( 40 - 40) =     43.56406  eV     1   --> A''            

 **************************************************************************

 **************************************************************************

                    xk=(   0.35349,   0.35349,   0.35349  )

     point group D_3d (-3m) 
     there are  6 classes
     the character table:

       E     2C3   3C2'  i     2S6   3s_d 
A_1g   1.00  1.00  1.00  1.00  1.00  1.00
A_2g   1.00  1.00 -1.00  1.00  1.00 -1.00
E_g    2.00 -1.00  0.00  2.00 -1.00  0.00
A_1u   1.00  1.00  1.00 -1.00 -1.00 -1.00
A_2u   1.00  1.00 -1.00 -1.00 -1.00  1.00
E_u    2.00 -1.00  0.00 -2.00  1.00  0.00

     the symmetry operations in each class and the name of the first element:

     E        1
                                                                 
     2C3      5    6
                                                                 
     3C2'     2    4    3
                                                                 
     i        7
                                                                 
     2S6     11   12
                                                                 
     3s_d     8   10    9
                                                                 

     Band symmetry, D_3d (-3m)  point group:

     e(  1 -  2) =    -46.81220  eV     2   --> A_1g L_1       
     e(  1 -  2) =    -46.81220  eV     2   --> A_2u L_2'      
     e(  3 -  3) =    -18.80913  eV     1   --> A_1g L_1       
     e(  4 -  4) =    -18.77613  eV     1   --> A_2u L_2'      
     e(  5 -  6) =    -18.75778  eV     2   --> E_u  L_3'      
     e(  7 -  8) =    -18.75265  eV     2   --> E_g  L_3       
     e(  9 -  9) =    -11.29135  eV     1   --> A_1g L_1       
     e( 10 - 10) =      1.72196  eV     1   --> A_2u L_2'      
     e( 11 - 12) =      3.09429  eV     2   --> E_u  L_3'      
     e( 13 - 13) =      9.32253  eV     1   --> A_2u L_2'      
     e( 14 - 14) =      9.63100  eV     1   --> A_1g L_1       
     e( 15 - 16) =     13.92791  eV     2   --> E_g  L_3       
     e( 17 - 17) =     18.17676  eV     1   --> A_2u L_2'      
     e( 18 - 19) =     18.18280  eV     2   --> E_u  L_3'      
     e( 20 - 21) =     21.72899  eV     2   --> E_g  L_3       
     e( 22 - 22) =     21.78776  eV     1   --> A_1g L_1       
     e( 23 - 24) =     24.95220  eV     2   --> E_u  L_3'      
     e( 25 - 25) =     29.26724  eV     1   --> A_2u L_2'      
     e( 26 - 27) =     30.78856  eV     2   --> E_g  L_3       
     e( 28 - 28) =     30.90745  eV     1   --> A_1g L_1       
     e( 29 - 30) =     32.65168  eV     2   --> E_u  L_3'      
     e( 31 - 31) =     33.16277  eV     1   --> A_2u L_2'      
     e( 32 - 32) =     34.22943  eV     1   --> A_1g L_1       
     e( 33 - 34) =     37.80742  eV     2   --> E_g  L_3       
     e( 35 - 36) =     39.37529  eV     2   --> E_u  L_3'      
     e( 37 - 37) =     40.78893  eV     1   --> A_1u L_1'      
     e( 38 - 38) =     41.72881  eV     1   --> A_2g L_2       
     e( 39 - 40) =     42.83496  eV     2   --> E_g  L_3       

 **************************************************************************

 **************************************************************************

                    xk=(   0.32401,   0.32401,   0.32401  )

     point group C_3v (3m)  
     there are  3 classes
     the character table:

       E     2C3   3s_v 
A_1    1.00  1.00  1.00
A_2    1.00  1.00 -1.00
E      2.00 -1.00  0.00

     the symmetry operations in each class and the name of the first element:

     E        1
                                                                 
     2C3      2    3
                                                                 
     3s_v     4    5    6
                                                                 

     Band symmetry, C_3v (3m)   point group:

     e(  1 -  1) =    -46.81759  eV     1   --> A_1  L_1       
     e(  2 -  2) =    -46.80682  eV     1   --> A_1  L_1       
     e(  3 -  3) =    -18.81145  eV     1   --> A_1  L_1       
     e(  4 -  4) =    -18.77221  eV     1   --> A_1  L_1       
     e(  5 -  6) =    -18.76863  eV     2   --> E    L_3       
     e(  7 -  8) =    -18.74164  eV     2   --> E    L_3       
     e(  9 -  9) =    -11.29487  eV     1   --> A_1  L_1       
     e( 10 - 10) =      1.73551  eV     1   --> A_1  L_1       
     e( 11 - 12) =      3.09496  eV     2   --> E    L_3       
     e( 13 - 13) =      8.97318  eV     1   --> A_1  L_1       
     e( 14 - 14) =     10.00124  eV     1   --> A_1  L_1       
     e( 15 - 16) =     13.94962  eV     2   --> E    L_3       
     e( 17 - 17) =     18.13801  eV     1   --> A_1  L_1       
     e( 18 - 19) =     18.13898  eV     2   --> E    L_3       
     e( 20 - 21) =     21.65279  eV     2   --> E    L_3       
     e( 22 - 22) =     21.86705  eV     1   --> A_1  L_1       
     e( 23 - 24) =     25.10047  eV     2   --> E    L_3       
     e( 25 - 25) =     28.96352  eV     1   --> A_1  L_1       
     e( 26 - 27) =     30.33558  eV     2   --> E    L_3       
     e( 28 - 28) =     31.16219  eV     1   --> A_1  L_1       
     e( 29 - 29) =     32.39027  eV     1   --> A_1  L_1       
     e( 30 - 31) =     33.18519  eV     2   --> E    L_3       
     e( 32 - 32) =     35.05961  eV     1   --> A_1  L_1       
     e( 33 - 34) =     37.63945  eV     2   --> E    L_3       
     e( 35 - 36) =     39.59000  eV     2   --> E    L_3       
     e( 37 - 37) =     40.51521  eV     1   --> A_2  L_2       
     e( 38 - 38) =     42.05320  eV     1   --> A_2  L_2       
     e( 39 - 40) =     42.85364  eV     2   --> E    L_3       

 **************************************************************************

 **************************************************************************

                    xk=(   0.29460,   0.29460,   0.29460  )

     Band symmetry, C_3v (3m)   point group:

     e(  1 -  1) =    -46.82288  eV     1   --> A_1  L_1       
     e(  2 -  2) =    -46.80162  eV     1   --> A_1  L_1       
     e(  3 -  3) =    -18.81683  eV     1   --> A_1  L_1       
     e(  4 -  5) =    -18.78127  eV     2   --> E    L_3       
     e(  6 -  6) =    -18.76274  eV     1   --> A_1  L_1       
     e(  7 -  8) =    -18.72836  eV     2   --> E    L_3       
     e(  9 -  9) =    -11.30517  eV     1   --> A_1  L_1       
     e( 10 - 10) =      1.77598  eV     1   --> A_1  L_1       
     e( 11 - 12) =      3.09698  eV     2   --> E    L_3       
     e( 13 - 13) =      8.52356  eV     1   --> A_1  L_1       
     e( 14 - 14) =     10.51278  eV     1   --> A_1  L_1       
     e( 15 - 16) =     14.01444  eV     2   --> E    L_3       
     e( 17 - 18) =     18.01471  eV     2   --> E    L_3       
     e( 19 - 19) =     18.03563  eV     1   --> A_1  L_1       
     e( 20 - 21) =     21.45197  eV     2   --> E    L_3       
     e( 22 - 22) =     22.08828  eV     1   --> A_1  L_1       
     e( 23 - 24) =     25.50864  eV     2   --> E    L_3       
     e( 25 - 25) =     28.32891  eV     1   --> A_1  L_1       
     e( 26 - 27) =     29.54395  eV     2   --> E    L_3       
     e( 28 - 28) =     31.19522  eV     1   --> A_1  L_1       
     e( 29 - 29) =     31.78254  eV     1   --> A_1  L_1       
     e( 30 - 31) =     34.21770  eV     2   --> E    L_3       
     e( 32 - 32) =     36.28911  eV     1   --> A_1  L_1       
     e( 33 - 34) =     37.28637  eV     2   --> E    L_3       
     e( 35 - 35) =     40.05639  eV     1   --> A_2  L_2       
     e( 36 - 37) =     40.08302  eV     2   --> E    L_3       
     e( 38 - 38) =     42.66353  eV     1   --> A_2  L_2       
     e( 39 - 40) =     42.90835  eV     2   --> E    L_3       

 **************************************************************************

 **************************************************************************

                    xk=(   0.26512,   0.26512,   0.26512  )

     Band symmetry, C_3v (3m)   point group:

     e(  1 -  1) =    -46.82808  eV     1   --> A_1  L_1       
     e(  2 -  2) =    -46.79663  eV     1   --> A_1  L_1       
     e(  3 -  3) =    -18.82288  eV     1   --> A_1  L_1       
     e(  4 -  5) =    -18.79343  eV     2   --> E    L_3       
     e(  6 -  6) =    -18.75027  eV     1   --> A_1  L_1       
     e(  7 -  8) =    -18.71538  eV     2   --> E    L_3       
     e(  9 -  9) =    -11.32165  eV     1   --> A_1  L_1       
     e( 10 - 10) =      1.84367  eV     1   --> A_1  L_1       
     e( 11 - 12) =      3.10015  eV     2   --> E    L_3       
     e( 13 - 13) =      8.07948  eV     1   --> A_1  L_1       
     e( 14 - 14) =     11.05865  eV     1   --> A_1  L_1       
     e( 15 - 16) =     14.12237  eV     2   --> E    L_3       
     e( 17 - 18) =     17.82728  eV     2   --> E    L_3       
     e( 19 - 19) =     17.89964  eV     1   --> A_1  L_1       
     e( 20 - 21) =     21.17131  eV     2   --> E    L_3       
     e( 22 - 22) =     22.41477  eV     1   --> A_1  L_1       
     e( 23 - 24) =     26.11025  eV     2   --> E    L_3       
     e( 25 - 25) =     27.58657  eV     1   --> A_1  L_1       
     e( 26 - 27) =     28.75986  eV     2   --> E    L_3       
     e( 28 - 28) =     30.18195  eV     1   --> A_1  L_1       
     e( 29 - 29) =     32.27495  eV     1   --> A_1  L_1       
     e( 30 - 31) =     35.40376  eV     2   --> E    L_3       
     e( 32 - 33) =     36.89874  eV     2   --> E    L_3       
     e( 34 - 34) =     37.56653  eV     1   --> A_1  L_1       
     e( 35 - 35) =     39.60238  eV     1   --> A_2  L_2       
     e( 36 - 37) =     40.70546  eV     2   --> E    L_3       
     e( 38 - 38) =     42.81800  eV     1   --> A_1  L_1       
     e( 39 - 40) =     42.99511  eV     2   --> E    L_3       

 **************************************************************************

 **************************************************************************

                    xk=(   0.23564,   0.23564,   0.23564  )

     Band symmetry, C_3v (3m)   point group:

     e(  1 -  1) =    -46.83299  eV     1   --> A_1  L_1       
     e(  2 -  2) =    -46.79196  eV     1   --> A_1  L_1       
     e(  3 -  3) =    -18.82870  eV     1   --> A_1  L_1       
     e(  4 -  5) =    -18.80488  eV     2   --> E    L_3       
     e(  6 -  6) =    -18.73570  eV     1   --> A_1  L_1       
     e(  7 -  8) =    -18.70291  eV     2   --> E    L_3       
     e(  9 -  9) =    -11.34320  eV     1   --> A_1  L_1       
     e( 10 - 10) =      1.93855  eV     1   --> A_1  L_1       
     e( 11 - 12) =      3.10427  eV     2   --> E    L_3       
     e( 13 - 13) =      7.64508  eV     1   --> A_1  L_1       
     e( 14 - 14) =     11.63254  eV     1   --> A_1  L_1       
     e( 15 - 16) =     14.27270  eV     2   --> E    L_3       
     e( 17 - 18) =     17.60044  eV     2   --> E    L_3       
     e( 19 - 19) =     17.75984  eV     1   --> A_1  L_1       
     e( 20 - 21) =     20.83782  eV     2   --> E    L_3       
     e( 22 - 22) =     22.80176  eV     1   --> A_1  L_1       
     e( 23 - 23) =     26.80565  eV     1   --> A_1  L_1       
     e( 24 - 25) =     26.83852  eV     2   --> E    L_3       
     e( 26 - 27) =     28.06978  eV     2   --> E    L_3       
     e( 28 - 28) =     29.19717  eV     1   --> A_1  L_1       
     e( 29 - 29) =     32.75639  eV     1   --> A_1  L_1       
     e( 30 - 31) =     36.48904  eV     2   --> E    L_3       
     e( 32 - 33) =     36.70509  eV     2   --> E    L_3       
     e( 34 - 34) =     38.82665  eV     1   --> A_1  L_1       
     e( 35 - 35) =     39.18554  eV     1   --> A_2  L_2       
     e( 36 - 37) =     41.40395  eV     2   --> E    L_3       
     e( 38 - 38) =     42.60227  eV     1   --> A_1  L_1       
     e( 39 - 40) =     43.10452  eV     2   --> E    L_3       

 **************************************************************************

 **************************************************************************

                    xk=(   0.20623,   0.20623,   0.20623  )

     Band symmetry, C_3v (3m)   point group:

     e(  1 -  1) =    -46.83765  eV     1   --> A_1  L_1       
     e(  2 -  2) =    -46.78759  eV     1   --> A_1  L_1       
     e(  3 -  3) =    -18.83389  eV     1   --> A_1  L_1       
     e(  4 -  5) =    -18.81507  eV     2   --> E    L_3       
     e(  6 -  6) =    -18.72049  eV     1   --> A_1  L_1       
     e(  7 -  8) =    -18.69153  eV     2   --> E    L_3       
     e(  9 -  9) =    -11.36837  eV     1   --> A_1  L_1       
     e( 10 - 10) =      2.05988  eV     1   --> A_1  L_1       
     e( 11 - 12) =      3.10906  eV     2   --> E    L_3       
     e( 13 - 13) =      7.22120  eV     1   --> A_1  L_1       
     e( 14 - 14) =     12.23051  eV     1   --> A_1  L_1       
     e( 15 - 16) =     14.46385  eV     2   --> E    L_3       
     e( 17 - 18) =     17.35850  eV     2   --> E    L_3       
     e( 19 - 19) =     17.63631  eV     1   --> A_1  L_1       
     e( 20 - 21) =     20.46134  eV     2   --> E    L_3       
     e( 22 - 22) =     23.19863  eV     1   --> A_1  L_1       
     e( 23 - 23) =     26.02712  eV     1   --> A_1  L_1       
     e( 24 - 25) =     27.30046  eV     2   --> E    L_3       
     e( 26 - 27) =     27.85303  eV     2   --> E    L_3       
     e( 28 - 28) =     28.29917  eV     1   --> A_1  L_1       
     e( 29 - 29) =     33.15346  eV     1   --> A_1  L_1       
     e( 30 - 31) =     36.18323  eV     2   --> E    L_3       
     e( 32 - 33) =     37.97727  eV     2   --> E    L_3       
     e( 34 - 34) =     38.81451  eV     1   --> A_2  L_2       
     e( 35 - 35) =     39.99242  eV     1   --> A_1  L_1       
     e( 36 - 37) =     42.15884  eV     2   --> E    L_3       
     e( 38 - 38) =     42.35778  eV     1   --> A_1  L_1       
     e( 39 - 40) =     43.21505  eV     2   --> E    L_3       

 **************************************************************************

 **************************************************************************

                    xk=(   0.17675,   0.17675,   0.17675  )

     Band symmetry, C_3v (3m)   point group:

     e(  1 -  1) =    -46.84182  eV     1   --> A_1  L_1       
     e(  2 -  2) =    -46.78371  eV     1   --> A_1  L_1       
     e(  3 -  3) =    -18.83835  eV     1   --> A_1  L_1       
     e(  4 -  5) =    -18.82447  eV     2   --> E    L_3       
     e(  6 -  6) =    -18.70483  eV     1   --> A_1  L_1       
     e(  7 -  8) =    -18.68083  eV     2   --> E    L_3       
     e(  9 -  9) =    -11.39560  eV     1   --> A_1  L_1       
     e( 10 - 10) =      2.20705  eV     1   --> A_1  L_1       
     e( 11 - 12) =      3.11422  eV     2   --> E    L_3       
     e( 13 - 13) =      6.80686  eV     1   --> A_1  L_1       
     e( 14 - 14) =     12.85155  eV     1   --> A_1  L_1       
     e( 15 - 16) =     14.69479  eV     2   --> E    L_3       
     e( 17 - 18) =     17.12115  eV     2   --> E    L_3       
     e( 19 - 19) =     17.53727  eV     1   --> A_1  L_1       
     e( 20 - 21) =     20.04326  eV     2   --> E    L_3       
     e( 22 - 22) =     23.52256  eV     1   --> A_1  L_1       
     e( 23 - 23) =     25.32132  eV     1   --> A_1  L_1       
     e( 24 - 25) =     26.87780  eV     2   --> E    L_3       
     e( 26 - 26) =     27.49661  eV     1   --> A_1  L_1       
     e( 27 - 28) =     28.71240  eV     2   --> E    L_3       
     e( 29 - 29) =     33.45020  eV     1   --> A_1  L_1       
     e( 30 - 31) =     35.89331  eV     2   --> E    L_3       
     e( 32 - 32) =     38.49030  eV     1   --> A_2  L_2       
     e( 33 - 34) =     39.28752  eV     2   --> E    L_3       
     e( 35 - 35) =     40.91664  eV     1   --> A_1  L_1       
     e( 36 - 36) =     42.20630  eV     1   --> A_1  L_1       
     e( 37 - 38) =     42.95243  eV     2   --> E    L_3       
     e( 39 - 40) =     43.28051  eV     2   --> E    L_3       

 **************************************************************************

 **************************************************************************

                    xk=(   0.14727,   0.14727,   0.14727  )

     Band symmetry, C_3v (3m)   point group:

     e(  1 -  1) =    -46.84551  eV     1   --> A_1  L_1       
     e(  2 -  2) =    -46.78028  eV     1   --> A_1  L_1       
     e(  3 -  3) =    -18.84209  eV     1   --> A_1  L_1       
     e(  4 -  5) =    -18.83252  eV     2   --> E    L_3       
     e(  6 -  6) =    -18.68977  eV     1   --> A_1  L_1       
     e(  7 -  8) =    -18.67138  eV     2   --> E    L_3       
     e(  9 -  9) =    -11.42298  eV     1   --> A_1  L_1       
     e( 10 - 10) =      2.37694  eV     1   --> A_1  L_1       
     e( 11 - 12) =      3.11939  eV     2   --> E    L_3       
     e( 13 - 13) =      6.40647  eV     1   --> A_1  L_1       
     e( 14 - 14) =     13.48749  eV     1   --> A_1  L_1       
     e( 15 - 16) =     14.96147  eV     2   --> E    L_3       
     e( 17 - 18) =     16.90666  eV     2   --> E    L_3       
     e( 19 - 19) =     17.46183  eV     1   --> A_1  L_1       
     e( 20 - 21) =     19.58972  eV     2   --> E    L_3       
     e( 22 - 22) =     23.53925  eV     1   --> A_1  L_1       
     e( 23 - 23) =     24.91999  eV     1   --> A_1  L_1       
     e( 24 - 25) =     26.48341  eV     2   --> E    L_3       
     e( 26 - 26) =     26.79872  eV     1   --> A_1  L_1       
     e( 27 - 28) =     29.71363  eV     2   --> E    L_3       
     e( 29 - 29) =     33.64555  eV     1   --> A_1  L_1       
     e( 30 - 31) =     35.65445  eV     2   --> E    L_3       
     e( 32 - 32) =     38.21509  eV     1   --> A_2  L_2       
     e( 33 - 34) =     40.55451  eV     2   --> E    L_3       
     e( 35 - 35) =     41.25223  eV     1   --> A_1  L_1       
     e( 36 - 36) =     42.48062  eV     1   --> A_1  L_1       
     e( 37 - 38) =     42.98133  eV     2   --> E    L_3       
     e( 39 - 40) =     43.88493  eV     2   --> E    L_3       

 **************************************************************************

 **************************************************************************

                    xk=(   0.11785,   0.11785,   0.11785  )

     Band symmetry, C_3v (3m)   point group:

     e(  1 -  1) =    -46.84864  eV     1   --> A_1  L_1       
     e(  2 -  2) =    -46.77747  eV     1   --> A_1  L_1       
     e(  3 -  3) =    -18.84554  eV     1   --> A_1  L_1       
     e(  4 -  5) =    -18.83932  eV     2   --> E    L_3       
     e(  6 -  6) =    -18.67614  eV     1   --> A_1  L_1       
     e(  7 -  8) =    -18.66339  eV     2   --> E    L_3       
     e(  9 -  9) =    -11.44857  eV     1   --> A_1  L_1       
     e( 10 - 10) =      2.56360  eV     1   --> A_1  L_1       
     e( 11 - 12) =      3.12418  eV     2   --> E    L_3       
     e( 13 - 13) =      6.02770  eV     1   --> A_1  L_1       
     e( 14 - 14) =     14.12556  eV     1   --> A_1  L_1       
     e( 15 - 16) =     15.25544  eV     2   --> E    L_3       
     e( 17 - 18) =     16.73233  eV     2   --> E    L_3       
     e( 19 - 19) =     17.39973  eV     1   --> A_1  L_1       
     e( 20 - 21) =     19.11127  eV     2   --> E    L_3       
     e( 22 - 22) =     23.08217  eV     1   --> A_1  L_1       
     e( 23 - 23) =     24.99569  eV     1   --> A_1  L_1       
     e( 24 - 25) =     26.17691  eV     2   --> E    L_3       
     e( 26 - 26) =     26.21200  eV     1   --> A_1  L_1       
     e( 27 - 28) =     30.76596  eV     2   --> E    L_3       
     e( 29 - 29) =     33.75344  eV     1   --> A_1  L_1       
     e( 30 - 31) =     35.47784  eV     2   --> E    L_3       
     e( 32 - 32) =     37.98998  eV     1   --> A_2  L_2       
     e( 33 - 33) =     41.13000  eV     1   --> A_1  L_1       
     e( 34 - 35) =     41.69261  eV     2   --> E    L_3       
     e( 36 - 37) =     42.10437  eV     2   --> E    L_3       
     e( 38 - 38) =     43.09681  eV     1   --> A_1  L_1       
     e( 39 - 40) =     44.63945  eV     2   --> E    L_3       

 **************************************************************************

 **************************************************************************

                    xk=(   0.08837,   0.08837,   0.08837  )

     Band symmetry, C_3v (3m)   point group:

     e(  1 -  1) =    -46.85115  eV     1   --> A_1  L_1       
     e(  2 -  2) =    -46.77522  eV     1   --> A_1  L_1       
     e(  3 -  3) =    -18.84826  eV     1   --> A_1  L_1       
     e(  4 -  5) =    -18.84466  eV     2   --> E    L_3       
     e(  6 -  6) =    -18.66453  eV     1   --> A_1  L_1       
     e(  7 -  8) =    -18.65704  eV     2   --> E    L_3       
     e(  9 -  9) =    -11.47071  eV     1   --> A_1  L_1       
     e( 10 - 10) =      2.75786  eV     1   --> A_1  L_1       
     e( 11 - 12) =      3.12829  eV     2   --> E    L_3       
     e( 13 - 13) =      5.68077  eV     1   --> A_1  L_1       
     e( 14 - 14) =     14.74996  eV     1   --> A_1  L_1       
     e( 15 - 16) =     15.55909  eV     2   --> E    L_3       
     e( 17 - 18) =     16.62099  eV     2   --> E    L_3       
     e( 19 - 19) =     17.33226  eV     1   --> A_1  L_1       
     e( 20 - 21) =     18.61853  eV     2   --> E    L_3       
     e( 22 - 22) =     22.47400  eV     1   --> A_1  L_1       
     e( 23 - 23) =     25.23918  eV     1   --> A_1  L_1       
     e( 24 - 24) =     25.74052  eV     1   --> A_1  L_1       
     e( 25 - 26) =     25.95152  eV     2   --> E    L_3       
     e( 27 - 28) =     31.83309  eV     2   --> E    L_3       
     e( 29 - 29) =     33.79796  eV     1   --> A_1  L_1       
     e( 30 - 31) =     35.38481  eV     2   --> E    L_3       
     e( 32 - 32) =     37.81421  eV     1   --> A_2  L_2       
     e( 33 - 34) =     40.82576  eV     2   --> E    L_3       
     e( 35 - 35) =     40.93651  eV     1   --> A_1  L_1       
     e( 36 - 37) =     42.62125  eV     2   --> E    L_3       
     e( 38 - 38) =     43.72950  eV     1   --> A_1  L_1       
     e( 39 - 40) =     44.65338  eV     2   --> E    L_3       

 **************************************************************************

 **************************************************************************

                    xk=(   0.05889,   0.05889,   0.05889  )

     Band symmetry, C_3v (3m)   point group:

     e(  1 -  1) =    -46.85301  eV     1   --> A_1  L_1       
     e(  2 -  2) =    -46.77357  eV     1   --> A_1  L_1       
     e(  3 -  3) =    -18.85035  eV     1   --> A_1  L_1       
     e(  4 -  5) =    -18.84838  eV     2   --> E    L_3       
     e(  6 -  6) =    -18.65599  eV     1   --> A_1  L_1       
     e(  7 -  8) =    -18.65240  eV     2   --> E    L_3       
     e(  9 -  9) =    -11.48777  eV     1   --> A_1  L_1       
     e( 10 - 10) =      2.94046  eV     1   --> A_1  L_1       
     e( 11 - 12) =      3.13148  eV     2   --> E    L_3       
     e( 13 - 13) =      5.38729  eV     1   --> A_1  L_1       
     e( 14 - 14) =     15.32584  eV     1   --> A_1  L_1       
     e( 15 - 16) =     15.82094  eV     2   --> E    L_3       
     e( 17 - 18) =     16.62336  eV     2   --> E    L_3       
     e( 19 - 19) =     17.23739  eV     1   --> A_1  L_1       
     e( 20 - 21) =     18.12831  eV     2   --> E    L_3       
     e( 22 - 22) =     21.93090  eV     1   --> A_1  L_1       
     e( 23 - 23) =     25.38445  eV     1   --> A_1  L_1       
     e( 24 - 24) =     25.47488  eV     1   --> A_1  L_1       
     e( 25 - 26) =     25.79884  eV     2   --> E    L_3       
     e( 27 - 28) =     32.82628  eV     2   --> E    L_3       
     e( 29 - 29) =     33.80516  eV     1   --> A_1  L_1       
     e( 30 - 31) =     35.43517  eV     2   --> E    L_3       
     e( 32 - 32) =     37.68859  eV     1   --> A_2  L_2       
     e( 33 - 34) =     39.49054  eV     2   --> E    L_3       
     e( 35 - 35) =     40.77148  eV     1   --> A_1  L_1       
     e( 36 - 37) =     43.26189  eV     2   --> E    L_3       
     e( 38 - 38) =     44.28592  eV     1   --> A_1  L_1       
     e( 39 - 40) =     44.74771  eV     2   --> E    L_3       

 **************************************************************************

 **************************************************************************

                    xk=(   0.02948,   0.02948,   0.02948  )

     Band symmetry, C_3v (3m)   point group:

     e(  1 -  1) =    -46.85411  eV     1   --> A_1  L_1       
     e(  2 -  2) =    -46.77256  eV     1   --> A_1  L_1       
     e(  3 -  3) =    -18.85132  eV     1   --> A_1  L_1       
     e(  4 -  5) =    -18.85066  eV     2   --> E    L_3       
     e(  6 -  6) =    -18.65044  eV     1   --> A_1  L_1       
     e(  7 -  8) =    -18.64956  eV     2   --> E    L_3       
     e(  9 -  9) =    -11.49849  eV     1   --> A_1  L_1       
     e( 10 - 10) =      3.07925  eV     1   --> A_1  L_1       
     e( 11 - 12) =      3.13348  eV     2   --> E    L_3       
     e( 13 - 13) =      5.18146  eV     1   --> A_1  L_1       
     e( 14 - 14) =     15.78591  eV     1   --> A_1  L_1       
     e( 15 - 16) =     15.96225  eV     2   --> E    L_3       
     e( 17 - 18) =     16.80600  eV     2   --> E    L_3       
     e( 19 - 19) =     17.11112  eV     1   --> A_1  L_1       
     e( 20 - 21) =     17.66439  eV     2   --> E    L_3       
     e( 22 - 22) =     21.55719  eV     1   --> A_1  L_1       
     e( 23 - 23) =     25.17745  eV     1   --> A_1  L_1       
     e( 24 - 24) =     25.62042  eV     1   --> A_1  L_1       
     e( 25 - 26) =     25.71091  eV     2   --> E    L_3       
     e( 27 - 28) =     33.54544  eV     2   --> E    L_3       
     e( 29 - 29) =     33.79876  eV     1   --> A_1  L_1       
     e( 30 - 31) =     35.75214  eV     2   --> E    L_3       
     e( 32 - 32) =     37.61335  eV     1   --> A_2  L_2       
     e( 33 - 34) =     38.26240  eV     2   --> E    L_3       
     e( 35 - 35) =     40.66445  eV     1   --> A_1  L_1       
     e( 36 - 37) =     43.62367  eV     2   --> E    L_3       
     e( 38 - 38) =     44.68467  eV     1   --> A_1  L_1       
     e( 39 - 40) =     44.82689  eV     2   --> E    L_3       

 **************************************************************************

 **************************************************************************

                    xk=(   0.00000,   0.00000,   0.00000  )

     point group D_3d (-3m) 
     there are  6 classes
     the character table:

       E     2C3   3C2'  i     2S6   3s_d 
A_1g   1.00  1.00  1.00  1.00  1.00  1.00
A_2g   1.00  1.00 -1.00  1.00  1.00 -1.00
E_g    2.00 -1.00  0.00  2.00 -1.00  0.00
A_1u   1.00  1.00  1.00 -1.00 -1.00 -1.00
A_2u   1.00  1.00 -1.00 -1.00 -1.00  1.00
E_u    2.00 -1.00  0.00 -2.00  1.00  0.00

     the symmetry operations in each class and the name of the first element:

     E        1
                                                                 
     2C3      5    6
                                                                 
     3C2'     2    4    3
                                                                 
     i        7
                                                                 
     2S6     11   12
                                                                 
     3s_d     8   10    9
                                                                 

     Band symmetry, D_3d (-3m)  point group:

     e(  1 -  1) =    -46.85457  eV     1   --> A_1g L_1       
     e(  2 -  2) =    -46.77222  eV     1   --> A_2u L_2'      
     e(  3 -  3) =    -18.85171  eV     1   --> A_1g L_1       
     e(  4 -  5) =    -18.85143  eV     2   --> E_g  L_3       
     e(  6 -  8) =    -18.64888  eV     3   --> A_2u L_2'      
     e(  6 -  8) =    -18.64888  eV     3   --> E_u  L_3'      
     e(  9 -  9) =    -11.50217  eV     1   --> A_1g L_1       
     e( 10 - 10) =      3.13300  eV     1   --> A_2u L_2'      
     e( 11 - 12) =      3.13409  eV     2   --> E_u  L_3'      
     e( 13 - 13) =      5.10507  eV     1   --> A_1g L_1       
     e( 14 - 14) =     15.98539  eV     1   --> A_1g L_1       
     e( 15 - 16) =     15.99563  eV     2   --> E_g  L_3       
     e( 17 - 17) =     17.03284  eV     1   --> A_2u L_2'      
     e( 18 - 19) =     17.03868  eV     2   --> E_u  L_3'      
     e( 20 - 21) =     17.35072  eV     2   --> E_g  L_3       
     e( 22 - 22) =     21.42262  eV     1   --> A_1g L_1       
     e( 23 - 23) =     25.10557  eV     1   --> A_2u L_2'      
     e( 24 - 24) =     25.67308  eV     1   --> A_2u L_2'      
     e( 25 - 26) =     25.68204  eV     2   --> E_u  L_3'      
     e( 27 - 28) =     33.79078  eV     2   --> E_g  L_3       
     e( 29 - 29) =     33.79466  eV     1   --> A_1g L_1       
     e( 30 - 31) =     36.13281  eV     2   --> E_g  L_3       
     e( 32 - 33) =     37.57000  eV     2   --> E_u  L_3'      
     e( 34 - 34) =     37.58818  eV     1   --> A_1u L_1'      
     e( 35 - 35) =     40.62740  eV     1   --> A_1g L_1       
     e( 36 - 37) =     43.73969  eV     2   --> E_u  L_3'      
     e( 38 - 38) =     44.83342  eV     1   --> A_2u L_2'      
     e( 39 - 40) =     44.85625  eV     2   --> E_u  L_3'      

 **************************************************************************

 **************************************************************************

                    xk=(   0.04420,  -0.04422,   0.04420  )

     point group C_s (m)    
     there are  2 classes
     the character table:

       E     s    
A'     1.00  1.00
A''    1.00 -1.00

     the symmetry operations in each class and the name of the first element:

     E        1
                                                                 
     s        2
                                                                 

     Band symmetry, C_s (m)     point group:

     e(  1 -  1) =    -46.85365  eV     1   --> A'             
     e(  2 -  2) =    -46.77298  eV     1   --> A'             
     e(  3 -  3) =    -18.85065  eV     1   --> A'             
     e(  4 -  4) =    -18.84993  eV     1   --> A'             
     e(  5 -  5) =    -18.84970  eV     1   --> A''            
[...]
     e( 14 - 14) =      9.63178  eV     1   --> A_g            
     e( 15 - 15) =     13.92049  eV     1   --> A_g            
     e( 16 - 16) =     13.92535  eV     1   --> B_g            
     e( 17 - 17) =     18.17575  eV     1   --> B_u            
     e( 18 - 18) =     18.17804  eV     1   --> B_u            
     e( 19 - 19) =     18.18471  eV     1   --> A_u            
     e( 20 - 20) =     21.72698  eV     1   --> A_g            
     e( 21 - 21) =     21.73766  eV     1   --> B_g            
     e( 22 - 22) =     21.79554  eV     1   --> A_g            
     e( 23 - 23) =     24.94457  eV     1   --> B_u            
     e( 24 - 24) =     24.95645  eV     1   --> A_u            
     e( 25 - 25) =     29.27661  eV     1   --> B_u            
     e( 26 - 26) =     30.79590  eV     1   --> B_g            
     e( 27 - 27) =     30.80141  eV     1   --> A_g            
     e( 28 - 28) =     30.90229  eV     1   --> A_g            
     e( 29 - 29) =     32.65984  eV     1   --> A_u            
     e( 30 - 30) =     32.66003  eV     1   --> B_u            
     e( 31 - 31) =     33.17390  eV     1   --> B_u            
     e( 32 - 32) =     34.25200  eV     1   --> A_g            
     e( 33 - 33) =     37.78486  eV     1   --> B_g            
     e( 34 - 34) =     37.80396  eV     1   --> A_g            
     e( 35 - 35) =     39.35517  eV     1   --> A_u            
     e( 36 - 36) =     39.37279  eV     1   --> B_u            
     e( 37 - 37) =     40.77557  eV     1   --> A_u            
     e( 38 - 38) =     41.71652  eV     1   --> B_g            
     e( 39 - 39) =     42.81030  eV     1   --> A_g            
     e( 40 - 40) =     42.82886  eV     1   --> B_g            

 **************************************************************************

 **************************************************************************

                    xk=(   0.41253,  -0.29482,   0.29468  )

     point group C_1 (1)    
     there are  1 classes
     the character table:

       E    
A      1.00

     the symmetry operations in each class and the name of the first element:

     E        1
                                                                 

     Band symmetry, C_1 (1)     point group:

     e(  1 -  1) =    -46.81571  eV     1   --> A              
     e(  2 -  2) =    -46.80860  eV     1   --> A              
     e(  3 -  3) =    -18.83686  eV     1   --> A              
     e(  4 -  4) =    -18.80762  eV     1   --> A              
     e(  5 -  5) =    -18.79250  eV     1   --> A              
     e(  6 -  6) =    -18.73622  eV     1   --> A              
     e(  7 -  7) =    -18.71885  eV     1   --> A              
     e(  8 -  8) =    -18.71565  eV     1   --> A              
     e(  9 -  9) =    -11.28719  eV     1   --> A              
     e( 10 - 10) =      1.76993  eV     1   --> A              
     e( 11 - 11) =      3.02902  eV     1   --> A              
     e( 12 - 12) =      3.07882  eV     1   --> A              
     e( 13 - 13) =      9.11532  eV     1   --> A              
     e( 14 - 14) =      9.94865  eV     1   --> A              
     e( 15 - 15) =     13.67890  eV     1   --> A              
     e( 16 - 16) =     13.98108  eV     1   --> A              
     e( 17 - 17) =     17.75291  eV     1   --> A              
     e( 18 - 18) =     18.27194  eV     1   --> A              
     e( 19 - 19) =     18.65962  eV     1   --> A              
     e( 20 - 20) =     21.43532  eV     1   --> A              
     e( 21 - 21) =     21.82361  eV     1   --> A              
     e( 22 - 22) =     22.24180  eV     1   --> A              
     e( 23 - 23) =     24.96272  eV     1   --> A              
     e( 24 - 24) =     24.99414  eV     1   --> A              
     e( 25 - 25) =     29.08225  eV     1   --> A              
     e( 26 - 26) =     29.95508  eV     1   --> A              
     e( 27 - 27) =     30.80465  eV     1   --> A              
     e( 28 - 28) =     31.37109  eV     1   --> A              
     e( 29 - 29) =     32.59067  eV     1   --> A              
     e( 30 - 30) =     33.01307  eV     1   --> A              
     e( 31 - 31) =     33.65403  eV     1   --> A              
     e( 32 - 32) =     34.80659  eV     1   --> A              
     e( 33 - 33) =     36.19001  eV     1   --> A              
     e( 34 - 34) =     37.81982  eV     1   --> A              
     e( 35 - 35) =     37.87504  eV     1   --> A              
     e( 36 - 36) =     38.93113  eV     1   --> A              
     e( 37 - 37) =     41.99323  eV     1   --> A              
     e( 38 - 38) =     42.32065  eV     1   --> A              
     e( 39 - 39) =     42.83876  eV     1   --> A              
     e( 40 - 40) =     43.11637  eV     1   --> A              

 **************************************************************************

 **************************************************************************

                    xk=(   0.47151,  -0.23584,   0.23568  )

     Band symmetry, C_1 (1)     point group:

     e(  1 -  1) =    -46.81894  eV     1   --> A              
     e(  2 -  2) =    -46.80526  eV     1   --> A              
     e(  3 -  3) =    -18.88159  eV     1   --> A              
     e(  4 -  4) =    -18.84278  eV     1   --> A              
     e(  5 -  5) =    -18.82777  eV     1   --> A              
     e(  6 -  6) =    -18.69961  eV     1   --> A              
     e(  7 -  7) =    -18.68560  eV     1   --> A              
     e(  8 -  8) =    -18.67474  eV     1   --> A              
     e(  9 -  9) =    -11.27639  eV     1   --> A              
     e( 10 - 10) =      1.89222  eV     1   --> A              
     e( 11 - 11) =      2.87374  eV     1   --> A              
     e( 12 - 12) =      3.03963  eV     1   --> A              
     e( 13 - 13) =      8.82511  eV     1   --> A              
     e( 14 - 14) =     10.52653  eV     1   --> A              
     e( 15 - 15) =     13.21002  eV     1   --> A              
     e( 16 - 16) =     14.13527  eV     1   --> A              
     e( 17 - 17) =     16.86893  eV     1   --> A              
     e( 18 - 18) =     18.56793  eV     1   --> A              
     e( 19 - 19) =     19.78006  eV     1   --> A              
     e( 20 - 20) =     20.67761  eV     1   --> A              
     e( 21 - 21) =     22.09284  eV     1   --> A              
     e( 22 - 22) =     23.14464  eV     1   --> A              
     e( 23 - 23) =     25.01299  eV     1   --> A              
     e( 24 - 24) =     25.23210  eV     1   --> A              
     e( 25 - 25) =     28.71387  eV     1   --> A              
     e( 26 - 26) =     28.71977  eV     1   --> A              
     e( 27 - 27) =     30.74421  eV     1   --> A              
     e( 28 - 28) =     31.96843  eV     1   --> A              
     e( 29 - 29) =     32.74173  eV     1   --> A              
     e( 30 - 30) =     33.32318  eV     1   --> A              
     e( 31 - 31) =     33.52295  eV     1   --> A              
     e( 32 - 32) =     35.31881  eV     1   --> A              
     e( 33 - 33) =     35.72962  eV     1   --> A              
     e( 34 - 34) =     36.05837  eV     1   --> A              
     e( 35 - 35) =     37.74930  eV     1   --> A              
     e( 36 - 36) =     38.11931  eV     1   --> A              
     e( 37 - 37) =     41.42556  eV     1   --> A              
     e( 38 - 38) =     42.59449  eV     1   --> A              
     e( 39 - 39) =     43.15637  eV     1   --> A              
     e( 40 - 40) =     43.58241  eV     1   --> A              

 **************************************************************************

 **************************************************************************

                    xk=(   0.53042,  -0.17693,   0.17675  )

     Band symmetry, C_1 (1)     point group:

     e(  1 -  1) =    -46.82168  eV     1   --> A              
     e(  2 -  2) =    -46.80232  eV     1   --> A              
     e(  3 -  3) =    -18.92521  eV     1   --> A              
     e(  4 -  4) =    -18.86960  eV     1   --> A              
     e(  5 -  5) =    -18.85853  eV     1   --> A              
     e(  6 -  6) =    -18.66654  eV     1   --> A              
     e(  7 -  7) =    -18.65759  eV     1   --> A              
     e(  8 -  8) =    -18.64030  eV     1   --> A              
     e(  9 -  9) =    -11.26135  eV     1   --> A              
     e( 10 - 10) =      2.02130  eV     1   --> A              
     e( 11 - 11) =      2.73379  eV     1   --> A              
     e( 12 - 12) =      2.98770  eV     1   --> A              
     e( 13 - 13) =      8.50831  eV     1   --> A              
     e( 14 - 14) =     11.22014  eV     1   --> A              
     e( 15 - 15) =     12.85533  eV     1   --> A              
     e( 16 - 16) =     14.32466  eV     1   --> A              
     e( 17 - 17) =     15.95458  eV     1   --> A              
     e( 18 - 18) =     19.10098  eV     1   --> A              
     e( 19 - 19) =     19.39888  eV     1   --> A              
     e( 20 - 20) =     21.50357  eV     1   --> A              
     e( 21 - 21) =     22.49669  eV     1   --> A              
     e( 22 - 22) =     23.95697  eV     1   --> A              
     e( 23 - 23) =     25.09818  eV     1   --> A              
     e( 24 - 24) =     25.76538  eV     1   --> A              
     e( 25 - 25) =     27.57469  eV     1   --> A              
     e( 26 - 26) =     28.33240  eV     1   --> A              
     e( 27 - 27) =     30.61872  eV     1   --> A              
     e( 28 - 28) =     31.13760  eV     1   --> A              
     e( 29 - 29) =     31.95403  eV     1   --> A              
     e( 30 - 30) =     33.43409  eV     1   --> A              
     e( 31 - 31) =     34.00894  eV     1   --> A              
     e( 32 - 32) =     34.44839  eV     1   --> A              
     e( 33 - 33) =     35.41592  eV     1   --> A              
     e( 34 - 34) =     37.22136  eV     1   --> A              
     e( 35 - 35) =     37.57209  eV     1   --> A              
     e( 36 - 36) =     38.22070  eV     1   --> A              
     e( 37 - 37) =     40.58071  eV     1   --> A              
     e( 38 - 38) =     42.48639  eV     1   --> A              
     e( 39 - 39) =     42.89119  eV     1   --> A              
     e( 40 - 40) =     43.57364  eV     1   --> A              

 **************************************************************************

 **************************************************************************

                    xk=(   0.58933,  -0.11802,   0.11781  )

     Band symmetry, C_1 (1)     point group:

     e(  1 -  1) =    -46.82372  eV     1   --> A              
     e(  2 -  2) =    -46.80005  eV     1   --> A              
     e(  3 -  3) =    -18.96083  eV     1   --> A              
     e(  4 -  4) =    -18.88827  eV     1   --> A              
     e(  5 -  5) =    -18.88245  eV     1   --> A              
     e(  6 -  6) =    -18.64064  eV     1   --> A              
     e(  7 -  7) =    -18.63645  eV     1   --> A              
     e(  8 -  8) =    -18.61459  eV     1   --> A              
     e(  9 -  9) =    -11.24597  eV     1   --> A              
     e( 10 - 10) =      2.04530  eV     1   --> A              
     e( 11 - 11) =      2.73613  eV     1   --> A              
     e( 12 - 12) =      2.93741  eV     1   --> A              
     e( 13 - 13) =      8.19450  eV     1   --> A              
     e( 14 - 14) =     11.82069  eV     1   --> A              
     e( 15 - 15) =     12.83900  eV     1   --> A              
     e( 16 - 16) =     14.48862  eV     1   --> A              
     e( 17 - 17) =     15.19722  eV     1   --> A              
     e( 18 - 18) =     18.24678  eV     1   --> A              
     e( 19 - 19) =     19.87358  eV     1   --> A              
     e( 20 - 20) =     22.94983  eV     1   --> A              
     e( 21 - 21) =     23.21806  eV     1   --> A              
     e( 22 - 22) =     24.50887  eV     1   --> A              
     e( 23 - 23) =     25.19991  eV     1   --> A              
     e( 24 - 24) =     26.36415  eV     1   --> A              
     e( 25 - 25) =     26.58303  eV     1   --> A              
     e( 26 - 26) =     27.99413  eV     1   --> A              
     e( 27 - 27) =     29.04820  eV     1   --> A              
     e( 28 - 28) =     30.61809  eV     1   --> A              
     e( 29 - 29) =     32.12590  eV     1   --> A              
     e( 30 - 30) =     32.64567  eV     1   --> A              
     e( 31 - 31) =     33.53593  eV     1   --> A              
     e( 32 - 32) =     34.43921  eV     1   --> A              
     e( 33 - 33) =     35.70242  eV     1   --> A              
     e( 34 - 34) =     36.15821  eV     1   --> A              
     e( 35 - 35) =     39.32352  eV     1   --> A              
     e( 36 - 36) =     39.57234  eV     1   --> A              
     e( 37 - 37) =     39.97217  eV     1   --> A              
     e( 38 - 38) =     42.16328  eV     1   --> A              
     e( 39 - 39) =     43.03706  eV     1   --> A              
     e( 40 - 40) =     43.30873  eV     1   --> A              

 **************************************************************************

 **************************************************************************

                    xk=(   0.64832,  -0.05903,   0.05881  )

     Band symmetry, C_1 (1)     point group:

     e(  1 -  1) =    -46.82494  eV     1   --> A              
     e(  2 -  2) =    -46.79862  eV     1   --> A              
     e(  3 -  3) =    -18.98387  eV     1   --> A              
     e(  4 -  4) =    -18.89918  eV     1   --> A              
     e(  5 -  5) =    -18.89769  eV     1   --> A              
     e(  6 -  6) =    -18.62419  eV     1   --> A              
     e(  7 -  7) =    -18.62312  eV     1   --> A              
     e(  8 -  8) =    -18.59880  eV     1   --> A              
     e(  9 -  9) =    -11.23449  eV     1   --> A              
     e( 10 - 10) =      1.98706  eV     1   --> A              
     e( 11 - 11) =      2.83766  eV     1   --> A              
     e( 12 - 12) =      2.90159  eV     1   --> A              
     e( 13 - 13) =      7.95551  eV     1   --> A              
     e( 14 - 14) =     12.04160  eV     1   --> A              
     e( 15 - 15) =     13.25868  eV     1   --> A              
     e( 16 - 16) =     14.59281  eV     1   --> A              
     e( 17 - 17) =     14.73425  eV     1   --> A              
     e( 18 - 18) =     17.23003  eV     1   --> A              
     e( 19 - 19) =     20.76580  eV     1   --> A              
     e( 20 - 20) =     23.26260  eV     1   --> A              
     e( 21 - 21) =     24.76325  eV     1   --> A              
     e( 22 - 22) =     25.03708  eV     1   --> A              
     e( 23 - 23) =     25.12891  eV     1   --> A              
     e( 24 - 24) =     26.03918  eV     1   --> A              
     e( 25 - 25) =     26.67703  eV     1   --> A              
     e( 26 - 26) =     27.47184  eV     1   --> A              
     e( 27 - 27) =     27.55970  eV     1   --> A              
     e( 28 - 28) =     31.03827  eV     1   --> A              
     e( 29 - 29) =     31.73462  eV     1   --> A              
     e( 30 - 30) =     32.04622  eV     1   --> A              
     e( 31 - 31) =     32.46353  eV     1   --> A              
     e( 32 - 32) =     34.64746  eV     1   --> A              
     e( 33 - 33) =     35.22064  eV     1   --> A              
     e( 34 - 34) =     36.66878  eV     1   --> A              
     e( 35 - 35) =     39.08789  eV     1   --> A              
     e( 36 - 36) =     40.30053  eV     1   --> A              
     e( 37 - 37) =     41.20038  eV     1   --> A              
     e( 38 - 38) =     42.48362  eV     1   --> A              
     e( 39 - 39) =     43.05310  eV     1   --> A              
     e( 40 - 40) =     44.09477  eV     1   --> A              

 **************************************************************************

 **************************************************************************

                    xk=(   0.70723,  -0.00012,  -0.00012  )

     point group C_2h (2/m) 
     there are  4 classes
     the character table:

       E     C2    i     s_h  
A_g    1.00  1.00  1.00  1.00
B_g    1.00 -1.00  1.00 -1.00
A_u    1.00  1.00 -1.00 -1.00
B_u    1.00 -1.00 -1.00  1.00

     the symmetry operations in each class and the name of the first element:

     E        1
                                                                 
     C2       2
                                                                 
     i        3
                                                                 
     s_h      4
                                                                 

     Band symmetry, C_2h (2/m)  point group:

     e(  1 -  1) =    -46.82530  eV     1   --> B_u            
     e(  2 -  2) =    -46.79812  eV     1   --> A_g            
     e(  3 -  3) =    -18.99168  eV     1   --> A_g            
     e(  4 -  4) =    -18.90285  eV     1   --> B_u            
     e(  5 -  5) =    -18.90266  eV     1   --> A_u            
     e(  6 -  7) =    -18.61849  eV     2   --> A_g            
     e(  6 -  7) =    -18.61849  eV     2   --> B_g            
     e(  8 -  8) =    -18.59349  eV     1   --> B_u            
     e(  9 -  9) =    -11.23024  eV     1   --> A_g            
     e( 10 - 10) =      1.95603  eV     1   --> B_u            
     e( 11 - 11) =      2.88873  eV     1   --> B_u            
     e( 12 - 12) =      2.88993  eV     1   --> A_u            
     e( 13 - 13) =      7.86554  eV     1   --> A_g            
     e( 14 - 14) =     12.07623  eV     1   --> B_u            
     e( 15 - 15) =     13.51342  eV     1   --> A_g            
     e( 16 - 16) =     14.62765  eV     1   --> B_u            
     e( 17 - 17) =     14.63228  eV     1   --> A_u            
     e( 18 - 18) =     16.75861  eV     1   --> A_g            
     e( 19 - 19) =     21.27366  eV     1   --> A_u            
     e( 20 - 20) =     23.27490  eV     1   --> B_g            
     e( 21 - 21) =     24.92761  eV     1   --> A_g            
     e( 22 - 22) =     24.93011  eV     1   --> B_g            
     e( 23 - 23) =     26.20933  eV     1   --> B_u            
     e( 24 - 24) =     26.21212  eV     1   --> A_u            
     e( 25 - 25) =     26.67322  eV     1   --> A_g            
     e( 26 - 26) =     26.67757  eV     1   --> B_g            
     e( 27 - 27) =     26.98102  eV     1   --> A_g            
     e( 28 - 28) =     31.36054  eV     1   --> B_u            
     e( 29 - 29) =     31.41139  eV     1   --> B_u            
     e( 30 - 30) =     31.42151  eV     1   --> A_u            
     e( 31 - 31) =     32.85614  eV     1   --> B_u            
     e( 32 - 32) =     33.66328  eV     1   --> A_g            
     e( 33 - 33) =     35.68442  eV     1   --> B_u            
     e( 34 - 34) =     37.04528  eV     1   --> B_u            
     e( 35 - 35) =     38.56651  eV     1   --> A_g            
     e( 36 - 36) =     40.46821  eV     1   --> A_g            
     e( 37 - 37) =     41.77603  eV     1   --> B_g            
     e( 38 - 38) =     42.74849  eV     1   --> A_g            
     e( 39 - 39) =     43.45964  eV     1   --> B_u            
     e( 40 - 40) =     45.04154  eV     1   --> B_u            

 **************************************************************************

     BANDS        :      8.50s CPU     26.15s WALL


   This run was terminated on:  23:24:26   1Nov2024            

=------------------------------------------------------------------------------=
   JOB DONE.
=------------------------------------------------------------------------------=
