
     Program PWSCF v.6.6 starts on  1Nov2024 at 22:59: 8 

     This program is part of the open-source Quantum ESPRESSO suite
     for quantum simulation of materials; please cite
         "P. Giannozzi et al., J. Phys.:Condens. Matter 21 395502 (2009);
         "P. Giannozzi et al., J. Phys.:Condens. Matter 29 465901 (2017);
          URL http://www.quantum-espresso.org", 
     in publications or presentations arising from this work. More details at
     http://www.quantum-espresso.org/quote

     Parallel version (MPI & OpenMP), running on       4 processor cores
     Number of MPI processes:                 4
     Threads/MPI process:                     1

     MPI processes distributed on     1 nodes
     R & G space division:  proc/nbgrp/npool/nimage =       4
     Fft bands division:     nmany     =       1
     Waiting for input...
     Reading input from standard input
Warning: card  &IONS ignored
Warning: card     ION_DYNAMICS = 'BFGS' ignored
Warning: card  / ignored
Warning: card  &CELL ignored
Warning: card     CELL_FACTOR = 6 ignored
Warning: card  / ignored
Warning: card  &CELL ignored
Warning: card     CELL_FACTOR = 6 ignored
Warning: card  / ignored

     Current dimensions of program PWSCF are:
     Max number of different atomic species (ntypx) = 10
     Max number of k-points (npk) =  40000
     Max angular momentum in pseudopotentials (lmaxx) =  3

     Atomic positions and unit cell read from directory:
     ./out/1.save/
     Atomic positions from file used, from input discarded


     Subspace diagonalization in iterative solution of the eigenvalue problem:
     one sub-group per band group will be used
     scalapack distributed-memory algorithm (size of sub-group:  2*  2 procs)

     Message from routine setup:
     using ibrav=0 with symmetry is DISCOURAGED, use correct ibrav instead

     Parallelization info
     --------------------
     sticks:   dense  smooth     PW     G-vecs:    dense   smooth      PW
     Min         308     250     73                 7118     5217     821
     Max         310     251     74                 7120     5220     823
     Sum        1237    1003    295                28475    20875    3287



     bravais-lattice index     =            0
     lattice parameter (alat)  =       7.4230  a.u.
     unit-cell volume          =     289.0633 (a.u.)^3
     number of atoms/cell      =            3
     number of atomic types    =            2
     number of electrons       =        24.00
     number of Kohn-Sham states=           40
     kinetic-energy cutoff     =      66.0000  Ry
     charge density cutoff     =     323.0000  Ry
     Exchange-correlation= PBE
                           (   1   4   3   4   0   0   0)

     celldm(1)=   7.422954  celldm(2)=   0.000000  celldm(3)=   0.000000
     celldm(4)=   0.000000  celldm(5)=   0.000000  celldm(6)=   0.000000

     crystal axes: (cart. coord. in units of alat)
               a(1) = (   0.707107   0.707107   0.000241 )  
               a(2) = (   0.000241   0.707107   0.707107 )  
               a(3) = (   0.707107   0.000241   0.707107 )  

     reciprocal axes: (cart. coord. in units 2 pi/alat)
               b(1) = (  0.707227  0.707227 -0.707469 )  
               b(2) = ( -0.707469  0.707227  0.707227 )  
               b(3) = (  0.707227 -0.707469  0.707227 )  


     PseudoPot. # 1 for Na read from file:
     /home/haojia/qe_pseudo/Na.pbe-spnl-rrkjus_psl.1.0.0.UPF
     MD5 check sum: 1d26e2eb43446ab266a33aefbd559171
     Pseudo is Ultrasoft + core correction, Zval =  9.0
     Generated using "atomic" code by A. Dal Corso v.6.3
     Using radial grid of 1121 points,  4 beta functions with: 
                l(1) =   0
                l(2) =   0
                l(3) =   1
                l(4) =   1
     Q(r) pseudized with 0 coefficients 


     PseudoPot. # 2 for O  read from file:
     /home/haojia/qe_pseudo/O.pbe-n-rrkjus_psl.1.0.0.UPF
     MD5 check sum: 91400c9766925bcf19f520983a725ff0
     Pseudo is Ultrasoft + core correction, Zval =  6.0
     Generated using "atomic" code by A. Dal Corso v.6.3MaX
     Using radial grid of 1095 points,  4 beta functions with: 
                l(1) =   0
                l(2) =   0
                l(3) =   1
                l(4) =   1
     Q(r) pseudized with 0 coefficients 


     atomic species   valence    mass     pseudopotential
        Na             9.00    22.99000     Na( 1.00)
        O              6.00    15.99900     O ( 1.00)

     12 Sym. Ops., with inversion, found



   Cartesian axes

     site n.     atom                  positions (alat units)
         1           Na  tau(   1) = (   0.3535935   0.3535935   0.3535935  )
         2           O   tau(   2) = (   0.0000000   0.0000000   0.0000000  )
         3           Na  tau(   3) = (  -0.3535935  -0.3535935  -0.3535935  )

     number of k points=    43  Gaussian smearing, width (Ry)=  0.0200
                       cart. coord. in units 2pi/alat
        k(    1) = (   0.0000000   0.0000000   0.0000000), wk =   0.0465116
        k(    2) = (   0.0442017   0.0442017  -0.0442168), wk =   0.0465116
        k(    3) = (   0.0884034   0.0884034  -0.0884336), wk =   0.0465116
        k(    4) = (   0.1326052   0.1326052  -0.1326504), wk =   0.0465116
        k(    5) = (   0.1768069   0.1768069  -0.1768672), wk =   0.0465116
        k(    6) = (   0.2210086   0.2210086  -0.2210840), wk =   0.0465116
        k(    7) = (   0.2652103   0.2652103  -0.2653008), wk =   0.0465116
        k(    8) = (   0.3094120   0.3094120  -0.3095176), wk =   0.0465116
        k(    9) = (   0.3536137   0.3536137  -0.3537344), wk =   0.0465116
        k(   10) = (   0.2651801   0.4420172  -0.2653309), wk =   0.0465116
        k(   11) = (   0.1767466   0.5304206  -0.1769275), wk =   0.0465116
        k(   12) = (   0.0883130   0.6188240  -0.0885241), wk =   0.0465116
        k(   13) = (  -0.0001206   0.7072275  -0.0001206), wk =   0.0465116
        k(   14) = (   0.0882828   0.6187939   0.0882828), wk =   0.0465116
        k(   15) = (   0.1766862   0.5303603   0.1766862), wk =   0.0465116
        k(   16) = (   0.2650897   0.4419267   0.2650897), wk =   0.0465116
        k(   17) = (   0.3534931   0.3534931   0.3534931), wk =   0.0465116
        k(   18) = (   0.3240118   0.3240118   0.3240118), wk =   0.0465116
        k(   19) = (   0.2946012   0.2946012   0.2946012), wk =   0.0465116
        k(   20) = (   0.2651198   0.2651198   0.2651198), wk =   0.0465116
        k(   21) = (   0.2356385   0.2356385   0.2356385), wk =   0.0465116
        k(   22) = (   0.2062279   0.2062279   0.2062279), wk =   0.0465116
        k(   23) = (   0.1767466   0.1767466   0.1767466), wk =   0.0465116
        k(   24) = (   0.1472652   0.1472652   0.1472652), wk =   0.0465116
        k(   25) = (   0.1178546   0.1178546   0.1178546), wk =   0.0465116
        k(   26) = (   0.0883733   0.0883733   0.0883733), wk =   0.0465116
        k(   27) = (   0.0588920   0.0588920   0.0588920), wk =   0.0465116
        k(   28) = (   0.0294813   0.0294813   0.0294813), wk =   0.0465116
        k(   29) = (   0.0000000   0.0000000   0.0000000), wk =   0.0465116
        k(   30) = (   0.0442017  -0.0442168   0.0442017), wk =   0.0465116
        k(   31) = (   0.0884034  -0.0884336   0.0884034), wk =   0.0465116
        k(   32) = (   0.1326052  -0.1326504   0.1326052), wk =   0.0465116
        k(   33) = (   0.1768069  -0.1768672   0.1768069), wk =   0.0465116
        k(   34) = (   0.2210086  -0.2210840   0.2210086), wk =   0.0465116
        k(   35) = (   0.2652103  -0.2653008   0.2652103), wk =   0.0465116
        k(   36) = (   0.3094120  -0.3095176   0.3094120), wk =   0.0465116
        k(   37) = (   0.3536137  -0.3537344   0.3536137), wk =   0.0465116
        k(   38) = (   0.4125258  -0.2948223   0.2946816), wk =   0.0465116
        k(   39) = (   0.4715086  -0.2358396   0.2356787), wk =   0.0465116
        k(   40) = (   0.5304206  -0.1769275   0.1767466), wk =   0.0465116
        k(   41) = (   0.5893327  -0.1180155   0.1178144), wk =   0.0465116
        k(   42) = (   0.6483154  -0.0590327   0.0588115), wk =   0.0465116
        k(   43) = (   0.7072275  -0.0001206  -0.0001206), wk =   0.0465116

     Dense  grid:    28475 G-vectors     FFT dimensions: (  45,  45,  45)

     Smooth grid:    20875 G-vectors     FFT dimensions: (  40,  40,  40)

     Estimated max dynamical RAM per process >       9.15 MB

     Estimated total dynamical RAM >      36.60 MB

     Check: negative core charge=   -0.000003

     The potential is recalculated from file :
     ./out/1.save/charge-density

     Starting wfcs are   14 randomized atomic wfcs +   26 random wfcs

     Band Structure Calculation
     Davidson diagonalization with overlap

     ethr =  4.17E-09,  avg # of iterations = 31.3

     total cpu time spent up to now is       53.3 secs

     End of band structure calculation

          k = 0.0000 0.0000 0.0000 (  2685 PWs)   bands (ev):

   -46.8546 -46.7722 -18.8517 -18.8514 -18.8514 -18.6489 -18.6489 -18.6488
   -11.5022   3.1330   3.1341   3.1341   5.1051  15.9854  15.9956  15.9956
    17.0328  17.0387  17.0387  17.3507  17.3507  21.4226  25.1056  25.6731
    25.6820  25.6820  33.7908  33.7908  33.7947  36.1328  36.1328  37.5700
    37.5700  37.5882  40.6274  43.7397  43.7397  44.8334  44.8563  44.8563

          k = 0.0442 0.0442-0.0442 (  2662 PWs)   bands (ev):

   -46.8536 -46.7730 -18.8506 -18.8499 -18.8497 -18.6528 -18.6507 -18.6507
   -11.4940   3.0187   3.1317   3.1326   5.2710  15.5848  15.9005  15.9087
    16.6872  16.6914  17.1813  17.8893  17.8915  21.7188  25.2664  25.5645
    25.7397  25.7474  33.2414  33.2462  33.7992  35.5406  35.5485  37.6286
    38.8542  38.8700  40.7099  43.4768  43.4782  44.5293  44.7728  44.7928

          k = 0.0884 0.0884-0.0884 (  2655 PWs)   bands (ev):

   -46.8511 -46.7752 -18.8480 -18.8449 -18.8447 -18.6646 -18.6570 -18.6570
   -11.4707   2.7587   3.1273   3.1282   5.6810  14.7567  15.5521  15.5579
    16.6154  16.6216  17.3362  18.6165  18.6197  22.4768  25.2465  25.7422
    25.9451  25.9520  31.8367  31.8481  33.7952  35.3638  35.3788  37.7983
    40.8282  40.8448  40.9370  42.6272  42.6315  43.7452  44.6365  44.6563

          k = 0.1326 0.1326-0.1327 (  2632 PWs)   bands (ev):

   -46.8472 -46.7788 -18.8436 -18.8363 -18.8360 -18.6828 -18.6672 -18.6672
   -11.4360   2.4694   3.1209   3.1217   6.2143  13.8125  15.0991  15.1041
    16.8073  16.8144  17.4329  19.3506  19.3549  23.3577  24.9210  26.3151
    26.3207  26.4948  30.2368  30.2496  33.7070  35.5345  35.5516  38.0806
    41.1570  41.1628  41.2157  42.6149  42.6325  42.7897  44.3417  44.3573

          k = 0.1768 0.1768-0.1769 (  2632 PWs)   bands (ev):

   -46.8418 -46.7837 -18.8382 -18.8247 -18.8245 -18.7049 -18.6808 -18.6808
   -11.3955   2.2079   3.1132   3.1140   6.8074  12.8558  14.6880  14.6928
    17.1151  17.1225  17.5391  20.0403  20.0460  23.5299  25.3256  26.8766
    26.8804  27.5026  28.7114  28.7244  33.4490  35.8700  35.8877  38.4750
    39.3003  39.3063  40.9286  42.2121  42.9393  42.9518  43.2617  43.2757

          k = 0.2210 0.2210-0.2211 (  2625 PWs)   bands (ev):

   -46.8354 -46.7897 -18.8311 -18.8103 -18.8100 -18.7283 -18.6973 -18.6973
   -11.3552   1.9968   3.1056   3.1063   7.4325  11.9317  14.3562  14.3610
    17.4742  17.4817  17.6964  20.6514  20.6587  23.0100  26.4176  27.1997
    27.2101  27.8053  27.8094  28.7454  32.9662  36.3202  36.3382  37.3379
    37.3435  38.9793  39.4462  41.7574  41.7749  42.4791  43.1381  43.1565

          k = 0.2652 0.2652-0.2653 (  2607 PWs)   bands (ev):

   -46.8281 -46.7966 -18.8227 -18.7936 -18.7934 -18.7503 -18.7154 -18.7154
   -11.3214   1.8446   3.0991   3.0998   8.0802  11.0610  14.1151  14.1199
    17.8216  17.8292  17.9001  21.1680  21.1768  22.4222  26.1062  26.1185
    27.5912  28.7642  28.7644  30.1935  32.2741  35.4149  35.4191  36.8757
    36.8942  37.5867  39.5880  40.6866  40.7044  42.8130  42.9708  42.9891

          k = 0.3094 0.3094-0.3095 (  2598 PWs)   bands (ev):

   -46.8202 -46.8042 -18.8139 -18.7751 -18.7750 -18.7680 -18.7350 -18.7350
   -11.2989   1.7534   3.0948   3.0954   8.7493  10.2537  13.9693  13.9741
    18.0803  18.0879  18.0931  21.5623  21.5724  21.9695  25.2698  25.2819
    28.6737  29.9543  29.9571  31.3634  31.9021  33.6824  33.6850  35.6832
    37.4506  37.4695  39.7946  39.8124  40.2758  42.3301  42.8521  42.8707

          k = 0.3536 0.3536-0.3537 (  2608 PWs)   bands (ev):

   -46.8122 -46.8122 -18.8091 -18.7761 -18.7579 -18.7577 -18.7528 -18.7528
   -11.2911   1.7230   3.0932   3.0938   9.3242   9.6318  13.9205  13.9254
    18.1758  18.1780  18.1847  21.7270  21.7377  21.7955  24.9446  24.9565
    29.2766  30.7959  30.8014  30.9023  32.6598  32.6600  33.1739  34.2520
    37.7849  37.8040  39.3552  39.3728  40.7756  41.7165  42.8103  42.8289

          k = 0.2652 0.4420-0.2653 (  2613 PWs)   bands (ev):

   -46.8174 -46.8069 -18.8588 -18.8262 -18.8106 -18.7178 -18.7017 -18.6946
   -11.2825   1.8244   2.9575   3.0617   8.9734  10.2166  13.4467  14.0495
    17.3330  18.3923  19.1819  21.0837  21.9381  22.6785  24.9836  25.0770
    28.9066  29.3332  30.7835  31.7801  32.5507  33.0672  34.3014  35.1057
    35.2807  36.8225  37.9377  38.4510  41.8992  42.4159  43.2106  43.5468

          k = 0.1767 0.5304-0.1769 (  2620 PWs)   bands (ev):

   -46.8217 -46.8023 -18.9252 -18.8696 -18.8585 -18.6665 -18.6576 -18.6403
   -11.2614   2.0213   2.7338   2.9877   8.5083  11.2201  12.8553  14.3247
    15.9546  19.1010  19.3989  21.5036  22.4967  23.9570  25.0982  25.7654
    27.5747  28.3324  30.6187  31.1376  31.9540  33.4341  34.0089  34.4484
    35.4159  37.2214  37.5721  38.2207  40.5807  42.4864  42.8912  43.5736

          k = 0.0883 0.6188-0.0885 (  2608 PWs)   bands (ev):

   -46.8244 -46.7992 -18.9740 -18.8947 -18.8913 -18.6311 -18.6287 -18.6054
   -11.2395   2.0182   2.7851   2.9170   8.0605  11.9742  13.0202  14.5492
    14.9197  17.7029  20.3220  23.1419  24.0916  24.7106  25.2129  26.2094
    26.5633  27.8082  28.1843  30.7767  32.1243  32.2766  32.7638  34.8065
    35.3918  36.2509  39.5444  39.9153  40.4814  42.2807  42.9162  43.6316

          k =-0.0001 0.7072-0.0001 (  2586 PWs)   bands (ev):

   -46.8253 -46.7981 -18.9917 -18.9029 -18.9027 -18.6185 -18.6185 -18.5935
   -11.2302   1.9560   2.8887   2.8899   7.8655  12.0762  13.5134  14.6277
    14.6323  16.7586  21.2737  23.2749  24.9276  24.9301  26.2093  26.2121
    26.6732  26.6776  26.9810  31.3605  31.4114  31.4215  32.8561  33.6633
    35.6844  37.0453  38.5665  40.4682  41.7760  42.7485  43.4596  45.0415

          k = 0.0883 0.6188 0.0883 (  2608 PWs)   bands (ev):

   -46.8244 -46.7992 -18.9740 -18.8948 -18.8911 -18.6311 -18.6287 -18.6054
   -11.2395   2.0182   2.7841   2.9182   8.0604  11.9744  13.0189  14.5541
    14.9175  17.7015  20.3238  23.1409  24.0940  24.7083  25.2174  26.2073
    26.5552  27.8045  28.1903  30.7684  32.1348  32.2690  32.7678  34.8034
    35.3961  36.2509  39.5471  39.9082  40.4711  42.2773  42.9225  43.6486

          k = 0.1767 0.5304 0.1767 (  2622 PWs)   bands (ev):

   -46.8217 -46.8023 -18.9252 -18.8698 -18.8584 -18.6665 -18.6576 -18.6403
   -11.2615   2.0207   2.7334   2.9888   8.5079  11.2194  12.8558  14.3301
    15.9532  19.1039  19.3958  21.5059  22.4962  23.9534  25.1018  25.7602
    27.5703  28.3243  30.6137  31.1436  31.9444  33.4270  34.0192  34.4468
    35.4166  37.2235  37.5590  38.2224  40.5917  42.4724  42.9127  43.5908

          k = 0.2651 0.4419 0.2651 (  2614 PWs)   bands (ev):

   -46.8174 -46.8069 -18.8589 -18.8263 -18.8104 -18.7178 -18.7016 -18.6946
   -11.2827   1.8234   2.9578   3.0626   8.9725  10.2155  13.4491  14.0555
    17.3322  18.3958  19.1826  21.0795  21.9374  22.6720  24.9882  25.0746
    28.8981  29.3255  30.7782  31.7778  32.5405  33.0594  34.2932  35.1099
    35.2610  36.8315  37.9548  38.4641  41.9067  42.4371  43.2182  43.5641

          k = 0.3535 0.3535 0.3535 (  2608 PWs)   bands (ev):

   -46.8122 -46.8122 -18.8091 -18.7761 -18.7578 -18.7578 -18.7527 -18.7527
   -11.2913   1.7220   3.0943   3.0943   9.3225   9.6310  13.9279  13.9279
    18.1768  18.1828  18.1828  21.7290  21.7290  21.7878  24.9522  24.9522
    29.2672  30.7886  30.7886  30.9075  32.6517  32.6517  33.1628  34.2294
    37.8074  37.8074  39.3753  39.3753  40.7889  41.7288  42.8350  42.8350

          k = 0.3240 0.3240 0.3240 (  2605 PWs)   bands (ev):

   -46.8176 -46.8068 -18.8115 -18.7722 -18.7686 -18.7686 -18.7416 -18.7416
   -11.2949   1.7355   3.0950   3.0950   8.9732  10.0012  13.9496  13.9496
    18.1380  18.1390  18.1390  21.6528  21.6528  21.8671  25.1005  25.1005
    28.9635  30.3356  30.3356  31.1622  32.3903  33.1852  33.1852  35.0596
    37.6394  37.6394  39.5900  39.5900  40.5152  42.0532  42.8536  42.8536

          k = 0.2946 0.2946 0.2946 (  2602 PWs)   bands (ev):

   -46.8229 -46.8016 -18.8168 -18.7813 -18.7813 -18.7627 -18.7284 -18.7284
   -11.3052   1.7760   3.0970   3.0970   8.5236  10.5128  14.0144  14.0144
    18.0147  18.0147  18.0356  21.4520  21.4520  22.0883  25.5086  25.5086
    28.3289  29.5440  29.5440  31.1952  31.7825  34.2177  34.2177  36.2891
    37.2864  37.2864  40.0564  40.0830  40.0830  42.6635  42.9083  42.9083

          k = 0.2651 0.2651 0.2651 (  2611 PWs)   bands (ev):

   -46.8281 -46.7966 -18.8229 -18.7934 -18.7934 -18.7503 -18.7154 -18.7154
   -11.3216   1.8437   3.1001   3.1001   8.0795  11.0586  14.1224  14.1224
    17.8273  17.8273  17.8996  21.1713  21.1713  22.4148  26.1103  26.1103
    27.5866  28.7599  28.7599  30.1819  32.2749  35.4038  35.4038  36.8987
    36.8987  37.5665  39.6024  40.7055  40.7055  42.8180  42.9951  42.9951

          k = 0.2356 0.2356 0.2356 (  2617 PWs)   bands (ev):

   -46.8330 -46.7920 -18.8287 -18.8049 -18.8049 -18.7357 -18.7029 -18.7029
   -11.3432   1.9386   3.1043   3.1043   7.6451  11.6325  14.2727  14.2727
    17.6004  17.6004  17.7598  20.8378  20.8378  22.8018  26.8056  26.8385
    26.8385  28.0698  28.0698  29.1972  32.7564  36.4890  36.4890  36.7051
    36.7051  38.8266  39.1855  41.4040  41.4040  42.6023  43.1045  43.1045

          k = 0.2062 0.2062 0.2062 (  2629 PWs)   bands (ev):

   -46.8377 -46.7876 -18.8339 -18.8151 -18.8151 -18.7205 -18.6915 -18.6915
   -11.3684   2.0599   3.1091   3.1091   7.2212  12.2305  14.4639  14.4639
    17.3585  17.3585  17.6363  20.4613  20.4613  23.1986  26.0271  27.3005
    27.3005  27.8530  27.8530  28.2992  33.1535  36.1832  36.1832  37.9773
    37.9773  38.8145  39.9924  42.1588  42.1588  42.3578  43.2150  43.2150

          k = 0.1767 0.1767 0.1767 (  2632 PWs)   bands (ev):

   -46.8418 -46.7837 -18.8384 -18.8245 -18.8245 -18.7048 -18.6808 -18.6808
   -11.3956   2.2071   3.1142   3.1142   6.8069  12.8515  14.6948  14.6948
    17.1212  17.1212  17.5373  20.0433  20.0433  23.5226  25.3213  26.8778
    26.8778  27.4966  28.7124  28.7124  33.4502  35.8933  35.8933  38.4903
    39.2875  39.2875  40.9166  42.2063  42.9524  42.9524  43.2805  43.2805

          k = 0.1473 0.1473 0.1473 (  2629 PWs)   bands (ev):

   -46.8455 -46.7803 -18.8421 -18.8325 -18.8325 -18.6898 -18.6714 -18.6714
   -11.4230   2.3769   3.1194   3.1194   6.4065  13.4875  14.9615  14.9615
    16.9067  16.9067  17.4618  19.5897  19.5897  23.5392  24.9200  26.4834
    26.4834  26.7987  29.7136  29.7136  33.6455  35.6544  35.6544  38.2151
    40.5545  40.5545  41.2522  42.4806  42.9813  42.9813  43.8849  43.8849

          k = 0.1179 0.1179 0.1179 (  2644 PWs)   bands (ev):

   -46.8486 -46.7775 -18.8455 -18.8393 -18.8393 -18.6761 -18.6634 -18.6634
   -11.4486   2.5636   3.1242   3.1242   6.0277  14.1256  15.2554  15.2554
    16.7323  16.7323  17.3997  19.1113  19.1113  23.0822  24.9957  26.1769
    26.1769  26.2120  30.7660  30.7660  33.7534  35.4778  35.4778  37.9900
    41.1300  41.6926  41.6926  42.1044  42.1044  43.0968  44.6395  44.6395

          k = 0.0884 0.0884 0.0884 (  2655 PWs)   bands (ev):

   -46.8511 -46.7752 -18.8483 -18.8447 -18.8447 -18.6645 -18.6570 -18.6570
   -11.4707   2.7579   3.1283   3.1283   5.6808  14.7500  15.5591  15.5591
    16.6210  16.6210  17.3323  18.6185  18.6185  22.4740  25.2392  25.7405
    25.9515  25.9515  31.8331  31.8331  33.7980  35.3848  35.3848  37.8142
    40.8258  40.8258  40.9365  42.6213  42.6213  43.7295  44.6534  44.6534

          k = 0.0589 0.0589 0.0589 (  2667 PWs)   bands (ev):

   -46.8530 -46.7736 -18.8504 -18.8484 -18.8484 -18.6560 -18.6524 -18.6524
   -11.4878   2.9405   3.1315   3.1315   5.3873  15.3258  15.8209  15.8209
    16.6234  16.6234  17.2374  18.1283  18.1283  21.9309  25.3844  25.4749
    25.7988  25.7988  32.8263  32.8263  33.8052  35.4352  35.4352  37.6886
    39.4905  39.4905  40.7715  43.2619  43.2619  44.2859  44.7477  44.7477

          k = 0.0295 0.0295 0.0295 (  2661 PWs)   bands (ev):

   -46.8541 -46.7726 -18.8513 -18.8507 -18.8507 -18.6504 -18.6496 -18.6496
   -11.4985   3.0792   3.1335   3.1335   5.1815  15.7859  15.9622  15.9622
    16.8060  16.8060  17.1111  17.6644  17.6644  21.5572  25.1774  25.6204
    25.7109  25.7109  33.5454  33.5454  33.7988  35.7521  35.7521  37.6133
    38.2624  38.2624  40.6645  43.6237  43.6237  44.6847  44.8269  44.8269

          k = 0.0000 0.0000 0.0000 (  2685 PWs)   bands (ev):

   -46.8546 -46.7722 -18.8517 -18.8514 -18.8514 -18.6489 -18.6489 -18.6488
   -11.5022   3.1330   3.1341   3.1341   5.1051  15.9854  15.9956  15.9956
    17.0328  17.0387  17.0387  17.3507  17.3507  21.4226  25.1056  25.6731
    25.6820  25.6820  33.7908  33.7908  33.7947  36.1328  36.1328  37.5700
    37.5700  37.5882  40.6274  43.7397  43.7397  44.8334  44.8563  44.8563

          k = 0.0442-0.0442 0.0442 (  2662 PWs)   bands (ev):

   -46.8536 -46.7730 -18.8506 -18.8499 -18.8497 -18.6528 -18.6507 -18.6507
   -11.4940   3.0187   3.1317   3.1326   5.2710  15.5848  15.9005  15.9087
    16.6872  16.6914  17.1813  17.8893  17.8915  21.7188  25.2664  25.5645
    25.7397  25.7474  33.2414  33.2462  33.7992  35.5406  35.5485  37.6286
    38.8542  38.8700  40.7099  43.4768  43.4782  44.5293  44.7728  44.7928

          k = 0.0884-0.0884 0.0884 (  2655 PWs)   bands (ev):

   -46.8511 -46.7752 -18.8480 -18.8449 -18.8447 -18.6646 -18.6570 -18.6570
   -11.4707   2.7587   3.1273   3.1282   5.6810  14.7567  15.5521  15.5579
    16.6154  16.6216  17.3362  18.6165  18.6197  22.4768  25.2465  25.7422
    25.9451  25.9520  31.8367  31.8481  33.7952  35.3638  35.3788  37.7983
    40.8282  40.8448  40.9370  42.6272  42.6315  43.7452  44.6365  44.6563

          k = 0.1326-0.1327 0.1326 (  2632 PWs)   bands (ev):

   -46.8472 -46.7788 -18.8436 -18.8363 -18.8360 -18.6828 -18.6672 -18.6672
   -11.4360   2.4694   3.1209   3.1217   6.2143  13.8125  15.0991  15.1041
    16.8073  16.8144  17.4329  19.3506  19.3549  23.3577  24.9210  26.3151
    26.3207  26.4948  30.2368  30.2496  33.7070  35.5345  35.5516  38.0806
    41.1570  41.1628  41.2157  42.6149  42.6325  42.7897  44.3417  44.3573

          k = 0.1768-0.1769 0.1768 (  2632 PWs)   bands (ev):

   -46.8418 -46.7837 -18.8382 -18.8247 -18.8245 -18.7049 -18.6808 -18.6808
   -11.3955   2.2079   3.1132   3.1140   6.8074  12.8558  14.6880  14.6928
    17.1151  17.1225  17.5391  20.0403  20.0460  23.5299  25.3256  26.8766
    26.8804  27.5026  28.7114  28.7244  33.4490  35.8700  35.8877  38.4750
    39.3003  39.3063  40.9286  42.2121  42.9393  42.9518  43.2617  43.2757

          k = 0.2210-0.2211 0.2210 (  2625 PWs)   bands (ev):

   -46.8354 -46.7897 -18.8311 -18.8103 -18.8100 -18.7283 -18.6973 -18.6973
   -11.3552   1.9968   3.1056   3.1063   7.4325  11.9317  14.3562  14.3610
    17.4742  17.4817  17.6964  20.6514  20.6587  23.0100  26.4176  27.1997
    27.2101  27.8053  27.8094  28.7454  32.9662  36.3202  36.3382  37.3379
    37.3435  38.9793  39.4462  41.7574  41.7749  42.4791  43.1381  43.1565

          k = 0.2652-0.2653 0.2652 (  2607 PWs)   bands (ev):

   -46.8281 -46.7966 -18.8227 -18.7936 -18.7934 -18.7503 -18.7154 -18.7154
   -11.3214   1.8446   3.0991   3.0998   8.0802  11.0610  14.1151  14.1199
    17.8216  17.8292  17.9001  21.1680  21.1768  22.4222  26.1062  26.1185
    27.5912  28.7642  28.7644  30.1935  32.2741  35.4149  35.4191  36.8757
    36.8942  37.5867  39.5880  40.6866  40.7044  42.8130  42.9708  42.9891

          k = 0.3094-0.3095 0.3094 (  2598 PWs)   bands (ev):

   -46.8202 -46.8042 -18.8139 -18.7751 -18.7750 -18.7680 -18.7350 -18.7350
   -11.2989   1.7534   3.0948   3.0954   8.7493  10.2537  13.9693  13.9741
    18.0803  18.0879  18.0931  21.5623  21.5724  21.9695  25.2698  25.2819
    28.6737  29.9543  29.9571  31.3634  31.9021  33.6824  33.6850  35.6832
    37.4506  37.4695  39.7946  39.8124  40.2758  42.3301  42.8521  42.8707

          k = 0.3536-0.3537 0.3536 (  2608 PWs)   bands (ev):

   -46.8122 -46.8122 -18.8091 -18.7761 -18.7579 -18.7577 -18.7528 -18.7528
   -11.2911   1.7230   3.0932   3.0938   9.3242   9.6318  13.9205  13.9254
    18.1758  18.1780  18.1847  21.7270  21.7377  21.7955  24.9446  24.9565
    29.2766  30.7959  30.8014  30.9023  32.6598  32.6600  33.1739  34.2520
    37.7849  37.8040  39.3552  39.3728  40.7756  41.7165  42.8103  42.8289

          k = 0.4125-0.2948 0.2947 (  2606 PWs)   bands (ev):

   -46.8157 -46.8086 -18.8369 -18.8076 -18.7925 -18.7362 -18.7189 -18.7156
   -11.2872   1.7699   3.0290   3.0788   9.1153   9.9486  13.6789  13.9811
    17.7529  18.2719  18.6596  21.4353  21.8236  22.2418  24.9627  24.9941
    29.0823  29.9551  30.8047  31.3711  32.5907  33.0131  33.6540  34.8066
    36.1900  37.8198  37.8750  38.9311  41.9932  42.3206  42.8388  43.1164

          k = 0.4715-0.2358 0.2357 (  2616 PWs)   bands (ev):

   -46.8189 -46.8053 -18.8816 -18.8428 -18.8278 -18.6996 -18.6856 -18.6747
   -11.2764   1.8922   2.8737   3.0396   8.8251  10.5265  13.2100  14.1353
    16.8689  18.5679  19.7801  20.6776  22.0928  23.1446  25.0130  25.2321
    28.7139  28.7198  30.7442  31.9684  32.7417  33.3232  33.5230  35.3188
    35.7296  36.0584  37.7493  38.1193  41.4256  42.5945  43.1564  43.5824

          k = 0.5304-0.1769 0.1767 (  2620 PWs)   bands (ev):

   -46.8217 -46.8023 -18.9252 -18.8696 -18.8585 -18.6665 -18.6576 -18.6403
   -11.2614   2.0213   2.7338   2.9877   8.5083  11.2201  12.8553  14.3247
    15.9546  19.1010  19.3989  21.5036  22.4967  23.9570  25.0982  25.7654
    27.5747  28.3324  30.6187  31.1376  31.9540  33.4341  34.0089  34.4484
    35.4159  37.2214  37.5721  38.2207  40.5807  42.4864  42.8912  43.5736

          k = 0.5893-0.1180 0.1178 (  2618 PWs)   bands (ev):

   -46.8237 -46.8000 -18.9608 -18.8883 -18.8824 -18.6406 -18.6365 -18.6146
   -11.2460   2.0453   2.7361   2.9374   8.1945  11.8207  12.8390  14.4886
    15.1972  18.2468  19.8736  22.9498  23.2181  24.5089  25.1999  26.3641
    26.5830  27.9941  29.0482  30.6181  32.1259  32.6457  33.5359  34.4392
    35.7024  36.1582  39.3235  39.5723  39.9722  42.1633  43.0371  43.3087

          k = 0.6483-0.0590 0.0588 (  2605 PWs)   bands (ev):

   -46.8249 -46.7986 -18.9839 -18.8992 -18.8977 -18.6242 -18.6231 -18.5988
   -11.2345   1.9871   2.8377   2.9016   7.9555  12.0416  13.2587  14.5928
    14.7343  17.2300  20.7658  23.2626  24.7632  25.0371  25.1289  26.0392
    26.6770  27.4718  27.5597  31.0383  31.7346  32.0462  32.4635  34.6475
    35.2206  36.6688  39.0879  40.3005  41.2004  42.4836  43.0531  44.0948

          k = 0.7072-0.0001-0.0001 (  2586 PWs)   bands (ev):

   -46.8253 -46.7981 -18.9917 -18.9029 -18.9027 -18.6185 -18.6185 -18.5935
   -11.2302   1.9560   2.8887   2.8899   7.8655  12.0762  13.5134  14.6277
    14.6323  16.7586  21.2737  23.2749  24.9276  24.9301  26.2093  26.2121
    26.6732  26.6776  26.9810  31.3605  31.4114  31.4215  32.8561  33.6633
    35.6844  37.0453  38.5665  40.4682  41.7760  42.7485  43.4596  45.0415

     the Fermi energy is     4.1719 ev
     (compare with:     4.2382 eV, computed in scf)

     Writing output data file ./out/1.save/

     init_run     :      0.32s CPU      0.79s WALL (       1 calls)
     electrons    :     31.56s CPU     49.28s WALL (       1 calls)

     Called by init_run:
     wfcinit      :      0.00s CPU      0.19s WALL (       1 calls)
     potinit      :      0.02s CPU      0.27s WALL (       1 calls)
     hinit0       :      0.25s CPU      0.26s WALL (       1 calls)

     Called by electrons:
     c_bands      :     31.56s CPU     49.28s WALL (       1 calls)
     v_of_rho     :      0.02s CPU      0.02s WALL (       1 calls)
     newd         :      0.01s CPU      0.03s WALL (       1 calls)

     Called by c_bands:
     init_us_2    :      0.00s CPU      0.01s WALL (      43 calls)
     cegterg      :     24.36s CPU     26.84s WALL (      88 calls)

     Called by *egterg:
     cdiaghg      :      3.39s CPU      4.10s WALL (    1391 calls)
     h_psi        :     19.11s CPU     20.64s WALL (    1479 calls)
     s_psi        :      0.12s CPU      0.13s WALL (    1479 calls)
     g_psi        :      0.08s CPU      0.10s WALL (    1348 calls)

     Called by h_psi:
     h_psi:calbec :      0.23s CPU      0.25s WALL (    1479 calls)
     vloc_psi     :     18.70s CPU     20.20s WALL (    1479 calls)
     add_vuspsi   :      0.13s CPU      0.15s WALL (    1479 calls)

     General routines
     calbec       :      0.22s CPU      0.24s WALL (    1479 calls)
     fft          :      0.01s CPU      0.02s WALL (      13 calls)
     ffts         :      0.00s CPU      0.00s WALL (       1 calls)
     fftw         :     17.83s CPU     19.25s WALL (   68300 calls)
     interpolate  :      0.00s CPU      0.00s WALL (       1 calls)
     davcio       :      0.01s CPU      1.39s WALL (      86 calls)

     Parallel routines
     fft_scatt_xy :      1.54s CPU      1.67s WALL (   68314 calls)
     fft_scatt_yz :      2.85s CPU      3.10s WALL (   68314 calls)

     PWSCF        :     33.81s CPU   1m25.73s WALL


   This run was terminated on:  23: 0:34   1Nov2024            

=------------------------------------------------------------------------------=
   JOB DONE.
=------------------------------------------------------------------------------=
