
     Program BANDS v.7.1 starts on  3Nov2024 at 11:35: 4 

     This program is part of the open-source Quantum ESPRESSO suite
     for quantum simulation of materials; please cite
         "P. Giannozzi et al., J. Phys.:Condens. Matter 21 395502 (2009);
         "P. Giannozzi et al., J. Phys.:Condens. Matter 29 465901 (2017);
         "P. Giannozzi et al., J. Chem. Phys. 152 154105 (2020);
          URL http://www.quantum-espresso.org", 
     in publications or presentations arising from this work. More details at
     http://www.quantum-espresso.org/quote

     Parallel version (MPI & OpenMP), running on       4 processor cores
     Number of MPI processes:                 4
     Threads/MPI process:                     1

     MPI processes distributed on     1 nodes
     R & G space division:  proc/nbgrp/npool/nimage =       4
     57531 MiB available memory on the printing compute node when the environment starts


     Reading xml data from directory:

     ./out/1.save/

     WARNING: libxc functional with ID  497 depends
      on external parameters: check the user_guide of
      QE if you need to modify them or to check their
      default values.

     IMPORTANT: XC functional enforced from input :
     Exchange-correlation= R2SCAN
                           (   0   0   0   0   0 497 498)
     Any further DFT definition will be discarded
     Please, verify this is what you really want


     Parallelization info
     --------------------
     sticks:   dense  smooth     PW     G-vecs:    dense   smooth      PW
     Min         801     801    214                29744    29744    4215
     Max         802     802    215                29746    29746    4218
     Sum        3205    3205    859               118981   118981   16865

     Using Slab Decomposition

     Reading meta-gga kinetic term
     Reading collected, re-writing distributed wavefunctions
     high-symmetry point:  0.0000 0.0000 0.0000   x coordinate   0.0000
     high-symmetry point:  0.3536 0.3536-0.3536   x coordinate   0.6124
     high-symmetry point: -0.0000 0.7071-0.0000   x coordinate   1.2248
     high-symmetry point:  0.3535 0.3535 0.3535   x coordinate   1.8372
     high-symmetry point:  0.0000 0.0000 0.0000   x coordinate   2.4495
     high-symmetry point:  0.3536-0.3536 0.3536   x coordinate   3.0619
     high-symmetry point:  0.7071-0.0000-0.0000   x coordinate   3.6743

     Plottable bands (eV) written to file bands.dat.gnu
     Bands written to file bands.dat

 **************************************************************************

                    xk=(   0.00000,   0.00000,   0.00000  )

     point group D_3d (-3m) 
     there are  6 classes
     the character table:

       E     2C3   3C2'  i     2S6   3s_d 
A_1g   1.00  1.00  1.00  1.00  1.00  1.00
A_2g   1.00  1.00 -1.00  1.00  1.00 -1.00
E_g    2.00 -1.00  0.00  2.00 -1.00  0.00
A_1u   1.00  1.00  1.00 -1.00 -1.00 -1.00
A_2u   1.00  1.00 -1.00 -1.00 -1.00  1.00
E_u    2.00 -1.00  0.00 -2.00  1.00  0.00

     the symmetry operations in each class and the name of the first element:

     E        1
                                                                 
     2C3      5    6
                                                                 
     3C2'     2    4    3
                                                                 
     i        7
                                                                 
     2S6     11   12
                                                                 
     3s_d     8   10    9
                                                                 

     Band symmetry, D_3d (-3m)  point group:

     e(  1 -  1) =    -26.05395  eV     1   --> A_1g L_1       
     e(  2 -  2) =    -25.66059  eV     1   --> A_2u L_2'      
     e(  3 -  3) =    -10.56811  eV     1   --> A_1g L_1       
     e(  4 -  4) =     -8.79551  eV     1   --> A_1g L_1       
     e(  5 -  6) =     -8.79524  eV     2   --> E_g  L_3       
     e(  7 -  7) =     -8.08970  eV     1   --> A_2u L_2'      
     e(  8 -  9) =     -8.08955  eV     2   --> E_u  L_3'      
     e( 10 - 12) =      4.47734  eV     3   --> A_2u L_2'      
     e( 10 - 12) =      4.47734  eV     3   --> E_u  L_3'      
     e( 13 - 13) =      7.18013  eV     1   --> A_1g L_1       
     e( 14 - 15) =     11.05300  eV     2   --> E_g  L_3       
     e( 16 - 16) =     12.54887  eV     1   --> A_2u L_2'      
     e( 17 - 18) =     12.54961  eV     2   --> E_u  L_3'      
     e( 19 - 21) =     17.14096  eV     3   --> A_1g L_1       
     e( 19 - 21) =     17.14096  eV     3   --> E_g  L_3       
     e( 22 - 23) =     18.82985  eV     2   --> E_u  L_3'      
     e( 24 - 24) =     19.10684  eV     1   --> A_1g L_1       
     e( 25 - 26) =     19.10761  eV     2   --> E_g  L_3       
     e( 27 - 27) =     19.13824  eV     1   --> A_1g L_1       
     e( 28 - 29) =     22.74010  eV     2   --> E_u  L_3'      
     e( 30 - 30) =     22.74095  eV     1   --> A_2u L_2'      
     e( 31 - 32) =     25.37820  eV     2   --> E_g  L_3       
     e( 33 - 33) =     27.44873  eV     1   --> A_2u L_2'      
     e( 34 - 35) =     27.45087  eV     2   --> E_u  L_3'      
     e( 36 - 36) =     28.52487  eV     1   --> A_2u L_2'      
     e( 37 - 38) =     30.35039  eV     2   --> E_u  L_3'      
     e( 39 - 39) =     30.35156  eV     1   --> A_1u L_1'      
     e( 40 - 40) =     33.71026  eV     1   --> A_1g L_1       

 **************************************************************************

 **************************************************************************

                    xk=(   0.04419,   0.04419,  -0.04420  )

     point group C_s (m)    
     there are  2 classes
     the character table:

       E     s    
A'     1.00  1.00
A''    1.00 -1.00

     the symmetry operations in each class and the name of the first element:

     E        1
                                                                 
     s        2
                                                                 

     Band symmetry, C_s (m)     point group:

     e(  1 -  1) =    -26.04993  eV     1   --> A'             
     e(  2 -  2) =    -25.66416  eV     1   --> A'             
     e(  3 -  3) =    -10.57998  eV     1   --> A'             
     e(  4 -  4) =     -8.79304  eV     1   --> A'             
     e(  5 -  5) =     -8.79016  eV     1   --> A'             
     e(  6 -  6) =     -8.78993  eV     1   --> A''            
     e(  7 -  7) =     -8.09804  eV     1   --> A'             
     e(  8 -  8) =     -8.09792  eV     1   --> A''            
     e(  9 -  9) =     -8.08421  eV     1   --> A'             
     e( 10 - 10) =      4.45848  eV     1   --> A'             
     e( 11 - 12) =      4.48819  eV     2   --> A'             
     e( 11 - 12) =      4.48819  eV     2   --> A''            
     e( 13 - 13) =      7.28501  eV     1   --> A'             
     e( 14 - 15) =     11.07628  eV     2   --> A'             
     e( 14 - 15) =     11.07628  eV     2   --> A''            
     e( 16 - 16) =     12.46897  eV     1   --> A'             
     e( 17 - 17) =     12.58820  eV     1   --> A'             
     e( 18 - 18) =     12.58892  eV     1   --> A''            
     e( 19 - 20) =     17.09748  eV     2   --> A'             
     e( 19 - 20) =     17.09748  eV     2   --> A''            
     e( 21 - 21) =     17.12447  eV     1   --> A'             
     e( 22 - 22) =     18.23469  eV     1   --> A'             
     e( 23 - 23) =     18.23484  eV     1   --> A''            
     e( 24 - 24) =     18.86819  eV     1   --> A'             
     e( 25 - 25) =     19.24613  eV     1   --> A'             
     e( 26 - 26) =     19.69228  eV     1   --> A'             
     e( 27 - 27) =     19.69290  eV     1   --> A''            
     e( 28 - 28) =     22.72839  eV     1   --> A''            
     e( 29 - 29) =     22.72917  eV     1   --> A'             
     e( 30 - 30) =     22.87094  eV     1   --> A'             
     e( 31 - 31) =     25.32767  eV     1   --> A''            
     e( 32 - 32) =     25.32779  eV     1   --> A'             
     e( 33 - 33) =     27.39424  eV     1   --> A'             
     e( 34 - 34) =     27.42216  eV     1   --> A'             
     e( 35 - 35) =     27.42403  eV     1   --> A''            
     e( 36 - 36) =     28.69384  eV     1   --> A'             
     e( 37 - 37) =     30.39474  eV     1   --> A''            
     e( 38 - 38) =     30.50237  eV     1   --> A'             
     e( 39 - 39) =     30.50342  eV     1   --> A''            
     e( 40 - 40) =     33.83263  eV     1   --> A'             

 **************************************************************************

 **************************************************************************

                    xk=(   0.08839,   0.08839,  -0.08839  )

     Band symmetry, C_s (m)     point group:

     e(  1 -  1) =    -26.03805  eV     1   --> A'             
     e(  2 -  2) =    -25.67473  eV     1   --> A'             
     e(  3 -  3) =    -10.61385  eV     1   --> A'             
     e(  4 -  4) =     -8.78380  eV     1   --> A'             
     e(  5 -  5) =     -8.77425  eV     1   --> A'             
     e(  6 -  6) =     -8.77402  eV     1   --> A''            
     e(  7 -  7) =     -8.12262  eV     1   --> A'             
     e(  8 -  8) =     -8.12248  eV     1   --> A''            
     e(  9 -  9) =     -8.07196  eV     1   --> A'             
     e( 10 - 10) =      4.41907  eV     1   --> A'             
     e( 11 - 12) =      4.51924  eV     2   --> A'             
     e( 11 - 12) =      4.51924  eV     2   --> A''            
     e( 13 - 13) =      7.57087  eV     1   --> A'             
     e( 14 - 14) =     11.14704  eV     1   --> A''            
     e( 15 - 15) =     11.14733  eV     1   --> A'             
     e( 16 - 16) =     12.26626  eV     1   --> A'             
     e( 17 - 17) =     12.70214  eV     1   --> A'             
     e( 18 - 18) =     12.70304  eV     1   --> A''            
     e( 19 - 19) =     16.96690  eV     1   --> A''            
     e( 20 - 20) =     16.96703  eV     1   --> A'             
     e( 21 - 21) =     17.03465  eV     1   --> A'             
     e( 22 - 22) =     17.53252  eV     1   --> A'             
     e( 23 - 23) =     17.53283  eV     1   --> A''            
     e( 24 - 24) =     18.30253  eV     1   --> A'             
     e( 25 - 25) =     19.53225  eV     1   --> A'             
     e( 26 - 26) =     20.35015  eV     1   --> A'             
     e( 27 - 27) =     20.35113  eV     1   --> A''            
     e( 28 - 28) =     22.70971  eV     1   --> A''            
     e( 29 - 29) =     22.71064  eV     1   --> A'             
     e( 30 - 30) =     23.18276  eV     1   --> A'             
     e( 31 - 31) =     25.24112  eV     1   --> A''            
     e( 32 - 32) =     25.24147  eV     1   --> A'             
     e( 33 - 33) =     27.20028  eV     1   --> A'             
     e( 34 - 34) =     27.32443  eV     1   --> A'             
     e( 35 - 35) =     27.32616  eV     1   --> A''            
     e( 36 - 36) =     29.22458  eV     1   --> A'             
     e( 37 - 37) =     30.52737  eV     1   --> A''            
     e( 38 - 38) =     30.88543  eV     1   --> A'             
     e( 39 - 39) =     30.88655  eV     1   --> A''            
     e( 40 - 40) =     34.10425  eV     1   --> A'             

 **************************************************************************

 **************************************************************************

                    xk=(   0.13258,   0.13258,  -0.13259  )

     Band symmetry, C_s (m)     point group:

     e(  1 -  1) =    -26.01886  eV     1   --> A'             
     e(  2 -  2) =    -25.69196  eV     1   --> A'             
     e(  3 -  3) =    -10.66459  eV     1   --> A'             
     e(  4 -  4) =     -8.76265  eV     1   --> A'             
     e(  5 -  5) =     -8.74792  eV     1   --> A'             
     e(  6 -  6) =     -8.74771  eV     1   --> A''            
     e(  7 -  7) =     -8.16189  eV     1   --> A'             
     e(  8 -  8) =     -8.16175  eV     1   --> A''            
     e(  9 -  9) =     -8.06147  eV     1   --> A'             
     e( 10 - 10) =      4.39082  eV     1   --> A'             
     e( 11 - 11) =      4.56609  eV     1   --> A'             
     e( 12 - 12) =      4.56622  eV     1   --> A''            
     e( 13 - 13) =      7.97038  eV     1   --> A'             
     e( 14 - 14) =     11.26678  eV     1   --> A''            
     e( 15 - 15) =     11.26738  eV     1   --> A'             
     e( 16 - 16) =     12.02891  eV     1   --> A'             
     e( 17 - 17) =     12.88029  eV     1   --> A'             
     e( 18 - 18) =     12.88145  eV     1   --> A''            
     e( 19 - 19) =     16.73284  eV     1   --> A''            
     e( 20 - 20) =     16.73478  eV     1   --> A'             
     e( 21 - 21) =     16.75310  eV     1   --> A'             
     e( 22 - 22) =     16.87164  eV     1   --> A'             
     e( 23 - 23) =     16.87385  eV     1   --> A''            
     e( 24 - 24) =     17.71012  eV     1   --> A'             
     e( 25 - 25) =     19.89070  eV     1   --> A'             
     e( 26 - 26) =     20.90031  eV     1   --> A'             
     e( 27 - 27) =     20.90183  eV     1   --> A''            
     e( 28 - 28) =     22.74265  eV     1   --> A''            
     e( 29 - 29) =     22.74400  eV     1   --> A'             
     e( 30 - 30) =     23.61620  eV     1   --> A'             
     e( 31 - 31) =     25.23174  eV     1   --> A''            
     e( 32 - 32) =     25.23223  eV     1   --> A'             
     e( 33 - 33) =     26.87747  eV     1   --> A'             
     e( 34 - 34) =     27.14354  eV     1   --> A'             
     e( 35 - 35) =     27.14491  eV     1   --> A''            
     e( 36 - 36) =     30.07462  eV     1   --> A'             
     e( 37 - 37) =     30.74841  eV     1   --> A''            
     e( 38 - 38) =     31.31208  eV     1   --> A'             
     e( 39 - 39) =     31.31335  eV     1   --> A''            
     e( 40 - 40) =     33.93571  eV     1   --> A'             

 **************************************************************************

 **************************************************************************

                    xk=(   0.17678,   0.17678,  -0.17678  )

     Band symmetry, C_s (m)     point group:

     e(  1 -  1) =    -25.99320  eV     1   --> A'             
     e(  2 -  2) =    -25.71529  eV     1   --> A'             
     e(  3 -  3) =    -10.72426  eV     1   --> A'             
     e(  4 -  4) =     -8.72711  eV     1   --> A'             
     e(  5 -  5) =     -8.71152  eV     1   --> A'             
     e(  6 -  6) =     -8.71132  eV     1   --> A''            
     e(  7 -  7) =     -8.21353  eV     1   --> A'             
     e(  8 -  8) =     -8.21337  eV     1   --> A''            
     e(  9 -  9) =     -8.06070  eV     1   --> A'             
     e( 10 - 10) =      4.39249  eV     1   --> A'             
     e( 11 - 11) =      4.62199  eV     1   --> A'             
     e( 12 - 12) =      4.62219  eV     1   --> A''            
     e( 13 - 13) =      8.40350  eV     1   --> A'             
     e( 14 - 14) =     11.43436  eV     1   --> A''            
     e( 15 - 15) =     11.43532  eV     1   --> A'             
     e( 16 - 16) =     11.84575  eV     1   --> A'             
     e( 17 - 17) =     13.10760  eV     1   --> A'             
     e( 18 - 18) =     13.10903  eV     1   --> A''            
     e( 19 - 19) =     16.17544  eV     1   --> A''            
     e( 20 - 20) =     16.17669  eV     1   --> A'             
     e( 21 - 21) =     16.21208  eV     1   --> A'             
     e( 22 - 22) =     16.50664  eV     1   --> A'             
     e( 23 - 23) =     16.50826  eV     1   --> A''            
     e( 24 - 24) =     17.27854  eV     1   --> A'             
     e( 25 - 25) =     20.21826  eV     1   --> A'             
     e( 26 - 26) =     21.25442  eV     1   --> A'             
     e( 27 - 27) =     21.25645  eV     1   --> A''            
     e( 28 - 28) =     22.91297  eV     1   --> A''            
     e( 29 - 29) =     22.91485  eV     1   --> A'             
     e( 30 - 30) =     24.21675  eV     1   --> A'             
     e( 31 - 31) =     25.36679  eV     1   --> A''            
     e( 32 - 32) =     25.36716  eV     1   --> A'             
     e( 33 - 33) =     26.47145  eV     1   --> A'             
     e( 34 - 34) =     26.89592  eV     1   --> A'             
     e( 35 - 35) =     26.89676  eV     1   --> A''            
     e( 36 - 36) =     31.05375  eV     1   --> A'             
     e( 37 - 37) =     31.05780  eV     1   --> A''            
     e( 38 - 38) =     31.55293  eV     1   --> A'             
     e( 39 - 39) =     31.55406  eV     1   --> A''            
     e( 40 - 40) =     33.09045  eV     1   --> A'             

 **************************************************************************

 **************************************************************************

                    xk=(   0.22097,   0.22097,  -0.22098  )

     Band symmetry, C_s (m)     point group:

     e(  1 -  1) =    -25.96223  eV     1   --> A'             
     e(  2 -  2) =    -25.74394  eV     1   --> A'             
     e(  3 -  3) =    -10.78347  eV     1   --> A'             
     e(  4 -  4) =     -8.67971  eV     1   --> A'             
     e(  5 -  5) =     -8.66565  eV     1   --> A'             
     e(  6 -  6) =     -8.66548  eV     1   --> A''            
     e(  7 -  7) =     -8.27459  eV     1   --> A'             
     e(  8 -  8) =     -8.27441  eV     1   --> A''            
     e(  9 -  9) =     -8.07304  eV     1   --> A'             
     e( 10 - 10) =      4.42303  eV     1   --> A'             
     e( 11 - 11) =      4.67859  eV     1   --> A'             
     e( 12 - 12) =      4.67886  eV     1   --> A''            
     e( 13 - 13) =      8.79095  eV     1   --> A'             
     e( 14 - 14) =     11.64124  eV     1   --> A''            
     e( 15 - 15) =     11.64258  eV     1   --> A'             
     e( 16 - 16) =     11.77521  eV     1   --> A'             
     e( 17 - 17) =     13.36591  eV     1   --> A'             
     e( 18 - 18) =     13.36755  eV     1   --> A''            
     e( 19 - 19) =     15.57715  eV     1   --> A''            
     e( 20 - 20) =     15.57775  eV     1   --> A'             
     e( 21 - 21) =     15.61509  eV     1   --> A'             
     e( 22 - 22) =     16.19679  eV     1   --> A'             
     e( 23 - 23) =     16.19796  eV     1   --> A''            
     e( 24 - 24) =     16.90070  eV     1   --> A'             
     e( 25 - 25) =     20.47891  eV     1   --> A'             
     e( 26 - 26) =     21.40709  eV     1   --> A'             
     e( 27 - 27) =     21.40926  eV     1   --> A''            
     e( 28 - 28) =     23.22037  eV     1   --> A''            
     e( 29 - 29) =     23.22256  eV     1   --> A'             
     e( 30 - 30) =     25.00774  eV     1   --> A'             
     e( 31 - 32) =     25.65585  eV     2   --> A'             
     e( 31 - 32) =     25.65585  eV     2   --> A''            
     e( 33 - 33) =     26.03779  eV     1   --> A'             
     e( 34 - 34) =     26.61207  eV     1   --> A'             
     e( 35 - 35) =     26.61233  eV     1   --> A''            
     e( 36 - 36) =     31.24161  eV     1   --> A'             
     e( 37 - 37) =     31.43940  eV     1   --> A'             
     e( 38 - 38) =     31.43955  eV     1   --> A''            
     e( 39 - 39) =     31.45547  eV     1   --> A''            
     e( 40 - 40) =     33.06722  eV     1   --> A'             

 **************************************************************************

 **************************************************************************

                    xk=(   0.26517,   0.26517,  -0.26518  )

     Band symmetry, C_s (m)     point group:

     e(  1 -  1) =    -25.92725  eV     1   --> A'             
     e(  2 -  2) =    -25.77694  eV     1   --> A'             
     e(  3 -  3) =    -10.83319  eV     1   --> A'             
     e(  4 -  4) =     -8.62842  eV     1   --> A'             
     e(  5 -  5) =     -8.61129  eV     1   --> A'             
     e(  6 -  6) =     -8.61115  eV     1   --> A''            
     e(  7 -  7) =     -8.34181  eV     1   --> A'             
     e(  8 -  8) =     -8.34160  eV     1   --> A''            
     e(  9 -  9) =     -8.09568  eV     1   --> A'             
     e( 10 - 10) =      4.46724  eV     1   --> A'             
     e( 11 - 11) =      4.72714  eV     1   --> A'             
     e( 12 - 12) =      4.72746  eV     1   --> A''            
     e( 13 - 13) =      9.07508  eV     1   --> A'             
     e( 14 - 14) =     11.81341  eV     1   --> A'             
     e( 15 - 15) =     11.86397  eV     1   --> A''            
     e( 16 - 16) =     11.86566  eV     1   --> A'             
     e( 17 - 17) =     13.63364  eV     1   --> A'             
     e( 18 - 18) =     13.63526  eV     1   --> A''            
     e( 19 - 19) =     15.04844  eV     1   --> A'             
     e( 20 - 20) =     15.04858  eV     1   --> A''            
     e( 21 - 21) =     15.16264  eV     1   --> A'             
     e( 22 - 22) =     15.89804  eV     1   --> A'             
     e( 23 - 23) =     15.89887  eV     1   --> A''            
     e( 24 - 24) =     16.49844  eV     1   --> A'             
     e( 25 - 25) =     20.68404  eV     1   --> A'             
     e( 26 - 26) =     21.45260  eV     1   --> A'             
     e( 27 - 27) =     21.45469  eV     1   --> A''            
     e( 28 - 28) =     23.55358  eV     1   --> A''            
     e( 29 - 29) =     23.55590  eV     1   --> A'             
     e( 30 - 30) =     25.57954  eV     1   --> A'             
     e( 31 - 31) =     26.00772  eV     1   --> A'             
     e( 32 - 32) =     26.05168  eV     1   --> A'             
     e( 33 - 33) =     26.05240  eV     1   --> A''            
     e( 34 - 34) =     26.33107  eV     1   --> A''            
     e( 35 - 35) =     26.33138  eV     1   --> A'             
     e( 36 - 36) =     30.33645  eV     1   --> A'             
     e( 37 - 37) =     31.00080  eV     1   --> A''            
     e( 38 - 38) =     31.00218  eV     1   --> A'             
     e( 39 - 39) =     31.94120  eV     1   --> A''            
     e( 40 - 40) =     33.50335  eV     1   --> A'             

 **************************************************************************

 **************************************************************************

                    xk=(   0.30936,   0.30936,  -0.30937  )

     Band symmetry, C_s (m)     point group:

     e(  1 -  1) =    -25.88974  eV     1   --> A'             
     e(  2 -  2) =    -25.81312  eV     1   --> A'             
     e(  3 -  3) =    -10.86611  eV     1   --> A'             
     e(  4 -  4) =     -8.58643  eV     1   --> A'             
     e(  5 -  6) =     -8.54994  eV     2   --> A'             
     e(  5 -  6) =     -8.54994  eV     2   --> A''            
     e(  7 -  7) =     -8.41173  eV     1   --> A'             
     e(  8 -  8) =     -8.41144  eV     1   --> A''            
     e(  9 -  9) =     -8.11908  eV     1   --> A'             
     e( 10 - 10) =      4.50487  eV     1   --> A'             
     e( 11 - 11) =      4.75987  eV     1   --> A'             
     e( 12 - 12) =      4.76022  eV     1   --> A''            
     e( 13 - 13) =      9.23984  eV     1   --> A'             
     e( 14 - 14) =     11.88575  eV     1   --> A'             
     e( 15 - 15) =     12.05263  eV     1   --> A''            
     e( 16 - 16) =     12.05457  eV     1   --> A'             
     e( 17 - 17) =     13.88158  eV     1   --> A'             
     e( 18 - 18) =     13.88247  eV     1   --> A''            
     e( 19 - 19) =     14.63179  eV     1   --> A'             
     e( 20 - 20) =     14.63334  eV     1   --> A''            
     e( 21 - 21) =     14.94242  eV     1   --> A'             
     e( 22 - 22) =     15.66640  eV     1   --> A'             
     e( 23 - 23) =     15.66684  eV     1   --> A''            
     e( 24 - 24) =     16.13264  eV     1   --> A'             
     e( 25 - 25) =     20.82969  eV     1   --> A'             
     e( 26 - 26) =     21.46283  eV     1   --> A'             
     e( 27 - 27) =     21.46484  eV     1   --> A''            
     e( 28 - 28) =     23.80927  eV     1   --> A''            
     e( 29 - 29) =     23.81164  eV     1   --> A'             
     e( 30 - 30) =     25.30625  eV     1   --> A'             
     e( 31 - 31) =     26.10900  eV     1   --> A''            
     e( 32 - 32) =     26.10973  eV     1   --> A'             
     e( 33 - 33) =     26.43368  eV     1   --> A'             
     e( 34 - 34) =     26.43518  eV     1   --> A''            
     e( 35 - 35) =     27.00934  eV     1   --> A'             
     e( 36 - 36) =     29.29180  eV     1   --> A'             
     e( 37 - 37) =     30.50665  eV     1   --> A''            
     e( 38 - 38) =     30.50929  eV     1   --> A'             
     e( 39 - 39) =     32.51419  eV     1   --> A''            
     e( 40 - 40) =     33.19638  eV     1   --> A'             

 **************************************************************************

 **************************************************************************

                    xk=(   0.35356,   0.35356,  -0.35357  )

     point group C_2h (2/m) 
     there are  4 classes
     the character table:

       E     C2    i     s_h  
A_g    1.00  1.00  1.00  1.00
B_g    1.00 -1.00  1.00 -1.00
A_u    1.00  1.00 -1.00 -1.00
B_u    1.00 -1.00 -1.00  1.00

     the symmetry operations in each class and the name of the first element:

     E        1
                                                                 
     C2       2
                                                                 
     i        3
                                                                 
     s_h      4
                                                                 

     Band symmetry, C_2h (2/m)  point group:

     e(  1 -  1) =    -25.85169  eV     1   --> A_g            
     e(  2 -  2) =    -25.85071  eV     1   --> B_u            
     e(  3 -  3) =    -10.87762  eV     1   --> A_g            
     e(  4 -  4) =     -8.56968  eV     1   --> B_u            
     e(  5 -  5) =     -8.49229  eV     1   --> A_u            
     e(  6 -  6) =     -8.49153  eV     1   --> B_u            
     e(  7 -  7) =     -8.47315  eV     1   --> A_g            
     e(  8 -  8) =     -8.47204  eV     1   --> B_g            
     e(  9 -  9) =     -8.12941  eV     1   --> A_g            
     e( 10 - 10) =      4.51948  eV     1   --> B_u            
     e( 11 - 11) =      4.77141  eV     1   --> B_u            
     e( 12 - 12) =      4.77178  eV     1   --> A_u            
     e( 13 - 13) =      9.29321  eV     1   --> B_u            
     e( 14 - 14) =     11.91699  eV     1   --> A_g            
     e( 15 - 15) =     12.13063  eV     1   --> B_g            
     e( 16 - 16) =     12.13267  eV     1   --> A_g            
     e( 17 - 17) =     14.02181  eV     1   --> A_u            
     e( 18 - 18) =     14.02241  eV     1   --> B_u            
     e( 19 - 19) =     14.43190  eV     1   --> A_g            
     e( 20 - 20) =     14.43527  eV     1   --> B_g            
     e( 21 - 21) =     14.89979  eV     1   --> A_g            
     e( 22 - 22) =     15.57530  eV     1   --> B_u            
     e( 23 - 23) =     15.57552  eV     1   --> A_u            
     e( 24 - 24) =     15.96894  eV     1   --> B_u            
     e( 25 - 25) =     20.88473  eV     1   --> B_u            
     e( 26 - 26) =     21.46435  eV     1   --> A_g            
     e( 27 - 27) =     21.46632  eV     1   --> B_g            
     e( 28 - 28) =     23.90784  eV     1   --> A_u            
     e( 29 - 29) =     23.91021  eV     1   --> B_u            
     e( 30 - 30) =     25.19709  eV     1   --> A_g            
     e( 31 - 31) =     26.02081  eV     1   --> B_g            
     e( 32 - 32) =     26.02170  eV     1   --> A_g            
     e( 33 - 33) =     26.60305  eV     1   --> B_u            
     e( 34 - 34) =     26.60495  eV     1   --> A_u            
     e( 35 - 35) =     27.81047  eV     1   --> A_g            
     e( 36 - 36) =     28.48565  eV     1   --> B_u            
     e( 37 - 37) =     30.28685  eV     1   --> B_g            
     e( 38 - 38) =     30.29003  eV     1   --> A_g            
     e( 39 - 39) =     33.10086  eV     1   --> B_u            
     e( 40 - 40) =     33.10697  eV     1   --> A_u            

 **************************************************************************

 **************************************************************************

                    xk=(   0.26517,   0.44195,  -0.26518  )

     point group C_1 (1)    
     there are  1 classes
     the character table:

       E    
A      1.00

     the symmetry operations in each class and the name of the first element:

     E        1
                                                                 

     Band symmetry, C_1 (1)     point group:

     e(  1 -  1) =    -25.87550  eV     1   --> A              
     e(  2 -  2) =    -25.82549  eV     1   --> A              
     e(  3 -  3) =    -10.90389  eV     1   --> A              
     e(  4 -  4) =     -8.74875  eV     1   --> A              
     e(  5 -  5) =     -8.67933  eV     1   --> A              
     e(  6 -  6) =     -8.47662  eV     1   --> A              
     e(  7 -  7) =     -8.28613  eV     1   --> A              
     e(  8 -  8) =     -8.26762  eV     1   --> A              
     e(  9 -  9) =     -8.13328  eV     1   --> A              
     e( 10 - 10) =      4.53407  eV     1   --> A              
     e( 11 - 11) =      4.74913  eV     1   --> A              
     e( 12 - 12) =      4.80275  eV     1   --> A              
     e( 13 - 13) =      9.12551  eV     1   --> A              
     e( 14 - 14) =     11.79137  eV     1   --> A              
     e( 15 - 15) =     12.23940  eV     1   --> A              
     e( 16 - 16) =     12.31835  eV     1   --> A              
     e( 17 - 17) =     13.50475  eV     1   --> A              
     e( 18 - 18) =     13.80803  eV     1   --> A              
     e( 19 - 19) =     14.43634  eV     1   --> A              
     e( 20 - 20) =     15.04526  eV     1   --> A              
     e( 21 - 21) =     15.12071  eV     1   --> A              
     e( 22 - 22) =     15.59716  eV     1   --> A              
     e( 23 - 23) =     15.80447  eV     1   --> A              
     e( 24 - 24) =     16.29894  eV     1   --> A              
     e( 25 - 25) =     20.36579  eV     1   --> A              
     e( 26 - 26) =     20.95129  eV     1   --> A              
     e( 27 - 27) =     21.73364  eV     1   --> A              
     e( 28 - 28) =     23.51886  eV     1   --> A              
     e( 29 - 29) =     23.79388  eV     1   --> A              
     e( 30 - 30) =     24.44765  eV     1   --> A              
     e( 31 - 31) =     25.34538  eV     1   --> A              
     e( 32 - 32) =     25.83152  eV     1   --> A              
     e( 33 - 33) =     27.24025  eV     1   --> A              
     e( 34 - 34) =     27.61574  eV     1   --> A              
     e( 35 - 35) =     28.13064  eV     1   --> A              
     e( 36 - 36) =     29.04853  eV     1   --> A              
     e( 37 - 37) =     30.39490  eV     1   --> A              
     e( 38 - 38) =     30.63448  eV     1   --> A              
     e( 39 - 39) =     32.21561  eV     1   --> A              
     e( 40 - 40) =     32.47870  eV     1   --> A              

 **************************************************************************

 **************************************************************************

                    xk=(   0.17677,   0.53034,  -0.17679  )

     Band symmetry, C_1 (1)     point group:

     e(  1 -  1) =    -25.89481  eV     1   --> A              
     e(  2 -  2) =    -25.80280  eV     1   --> A              
     e(  3 -  3) =    -10.96496  eV     1   --> A              
     e(  4 -  4) =     -8.91016  eV     1   --> A              
     e(  5 -  5) =     -8.84656  eV     1   --> A              
     e(  6 -  6) =     -8.46431  eV     1   --> A              
     e(  7 -  7) =     -8.12098  eV     1   --> A              
     e(  8 -  8) =     -8.11375  eV     1   --> A              
     e(  9 -  9) =     -8.05016  eV     1   --> A              
     e( 10 - 10) =      4.44263  eV     1   --> A              
     e( 11 - 11) =      4.81971  eV     1   --> A              
     e( 12 - 12) =      4.87802  eV     1   --> A              
     e( 13 - 13) =      8.85575  eV     1   --> A              
     e( 14 - 14) =     11.58305  eV     1   --> A              
     e( 15 - 15) =     12.34469  eV     1   --> A              
     e( 16 - 16) =     12.36287  eV     1   --> A              
     e( 17 - 17) =     13.32323  eV     1   --> A              
     e( 18 - 18) =     13.84603  eV     1   --> A              
     e( 19 - 19) =     14.13006  eV     1   --> A              
     e( 20 - 20) =     15.37736  eV     1   --> A              
     e( 21 - 21) =     15.50570  eV     1   --> A              
     e( 22 - 22) =     16.23104  eV     1   --> A              
     e( 23 - 23) =     16.33324  eV     1   --> A              
     e( 24 - 24) =     16.90718  eV     1   --> A              
     e( 25 - 25) =     19.80666  eV     1   --> A              
     e( 26 - 26) =     19.99409  eV     1   --> A              
     e( 27 - 27) =     21.69900  eV     1   --> A              
     e( 28 - 28) =     22.05976  eV     1   --> A              
     e( 29 - 29) =     23.22165  eV     1   --> A              
     e( 30 - 30) =     24.33498  eV     1   --> A              
     e( 31 - 31) =     25.32645  eV     1   --> A              
     e( 32 - 32) =     25.64121  eV     1   --> A              
     e( 33 - 33) =     27.08246  eV     1   --> A              
     e( 34 - 34) =     28.03708  eV     1   --> A              
     e( 35 - 35) =     28.89898  eV     1   --> A              
     e( 36 - 36) =     30.39846  eV     1   --> A              
     e( 37 - 37) =     30.96875  eV     1   --> A              
     e( 38 - 38) =     31.25132  eV     1   --> A              
     e( 39 - 39) =     31.39506  eV     1   --> A              
     e( 40 - 40) =     32.62414  eV     1   --> A              

 **************************************************************************

 **************************************************************************

                    xk=(   0.08838,   0.61873,  -0.08840  )

     Band symmetry, C_1 (1)     point group:

     e(  1 -  1) =    -25.90696  eV     1   --> A              
     e(  2 -  2) =    -25.78727  eV     1   --> A              
     e(  3 -  3) =    -11.02366  eV     1   --> A              
     e(  4 -  4) =     -8.98410  eV     1   --> A              
     e(  5 -  5) =     -8.95851  eV     1   --> A              
     e(  6 -  6) =     -8.52816  eV     1   --> A              
     e(  7 -  7) =     -8.01836  eV     1   --> A              
     e(  8 -  8) =     -8.01109  eV     1   --> A              
     e(  9 -  9) =     -7.92183  eV     1   --> A              
     e( 10 - 10) =      4.30966  eV     1   --> A              
     e( 11 - 11) =      4.93527  eV     1   --> A              
     e( 12 - 12) =      4.95298  eV     1   --> A              
     e( 13 - 13) =      8.61303  eV     1   --> A              
     e( 14 - 14) =     11.73393  eV     1   --> A              
     e( 15 - 15) =     12.10382  eV     1   --> A              
     e( 16 - 16) =     12.21545  eV     1   --> A              
     e( 17 - 17) =     13.69507  eV     1   --> A              
     e( 18 - 18) =     13.76485  eV     1   --> A              
     e( 19 - 19) =     14.26247  eV     1   --> A              
     e( 20 - 20) =     15.22084  eV     1   --> A              
     e( 21 - 21) =     15.33995  eV     1   --> A              
     e( 22 - 22) =     17.11872  eV     1   --> A              
     e( 23 - 23) =     17.12352  eV     1   --> A              
     e( 24 - 24) =     17.37399  eV     1   --> A              
     e( 25 - 25) =     19.12891  eV     1   --> A              
     e( 26 - 26) =     19.56877  eV     1   --> A              
     e( 27 - 27) =     20.68158  eV     1   --> A              
     e( 28 - 28) =     21.94402  eV     1   --> A              
     e( 29 - 29) =     22.52521  eV     1   --> A              
     e( 30 - 30) =     24.86919  eV     1   --> A              
     e( 31 - 31) =     25.31916  eV     1   --> A              
     e( 32 - 32) =     25.56564  eV     1   --> A              
     e( 33 - 33) =     26.48812  eV     1   --> A              
     e( 34 - 34) =     27.57505  eV     1   --> A              
     e( 35 - 35) =     28.70055  eV     1   --> A              
     e( 36 - 36) =     30.90200  eV     1   --> A              
     e( 37 - 37) =     31.38787  eV     1   --> A              
     e( 38 - 38) =     31.53647  eV     1   --> A              
     e( 39 - 39) =     32.00321  eV     1   --> A              
     e( 40 - 40) =     32.53818  eV     1   --> A              

 **************************************************************************

 **************************************************************************

                    xk=(  -0.00001,   0.70712,  -0.00001  )

     point group C_2h (2/m) 
     there are  4 classes
     the character table:

       E     C2    i     s_h  
A_g    1.00  1.00  1.00  1.00
B_g    1.00 -1.00  1.00 -1.00
A_u    1.00  1.00 -1.00 -1.00
B_u    1.00 -1.00 -1.00  1.00

     the symmetry operations in each class and the name of the first element:

     E        1
                                                                 
     C2       2
                                                                 
     i        3
                                                                 
     s_h      4
                                                                 

     Band symmetry, C_2h (2/m)  point group:

     e(  1 -  1) =    -25.91108  eV     1   --> B_u            
     e(  2 -  2) =    -25.78175  eV     1   --> A_g            
     e(  3 -  3) =    -11.04748  eV     1   --> A_g            
     e(  4 -  4) =     -8.99785  eV     1   --> B_u            
     e(  5 -  5) =     -8.99769  eV     1   --> A_u            
     e(  6 -  6) =     -8.57058  eV     1   --> A_g            
     e(  7 -  7) =     -7.97260  eV     1   --> A_g            
     e(  8 -  8) =     -7.97247  eV     1   --> B_g            
     e(  9 -  9) =     -7.87650  eV     1   --> B_u            
     e( 10 - 10) =      4.25679  eV     1   --> B_u            
     e( 11 - 12) =      4.98390  eV     2   --> A_u            
     e( 11 - 12) =      4.98390  eV     2   --> B_u            
     e( 13 - 13) =      8.49762  eV     1   --> A_g            
     e( 14 - 14) =     11.91732  eV     1   --> B_u            
     e( 15 - 15) =     11.99798  eV     1   --> A_g            
     e( 16 - 16) =     12.14395  eV     1   --> A_u            
     e( 17 - 17) =     13.79887  eV     1   --> A_g            
     e( 18 - 19) =     14.11707  eV     2   --> A_u            
     e( 18 - 19) =     14.11707  eV     2   --> B_u            
     e( 20 - 20) =     15.06590  eV     1   --> A_g            
     e( 21 - 21) =     15.06605  eV     1   --> B_g            
     e( 22 - 22) =     17.46607  eV     1   --> B_u            
     e( 23 - 23) =     17.61182  eV     1   --> B_u            
     e( 24 - 24) =     17.61278  eV     1   --> A_u            
     e( 25 - 25) =     18.66966  eV     1   --> B_g            
     e( 26 - 26) =     19.61230  eV     1   --> B_u            
     e( 27 - 27) =     20.11720  eV     1   --> B_g            
     e( 28 - 28) =     22.13556  eV     1   --> A_g            
     e( 29 - 29) =     22.17678  eV     1   --> A_g            
     e( 30 - 30) =     25.30137  eV     1   --> A_g            
     e( 31 - 31) =     25.30203  eV     1   --> B_g            
     e( 32 - 32) =     26.18589  eV     1   --> A_u            
     e( 33 - 33) =     26.18705  eV     1   --> B_u            
     e( 34 - 34) =     26.61825  eV     1   --> A_g            
     e( 35 - 35) =     27.98686  eV     1   --> B_u            
     e( 36 - 36) =     30.68296  eV     1   --> A_g            
     e( 37 - 37) =     31.65360  eV     1   --> B_u            
     e( 38 - 38) =     31.65607  eV     1   --> A_u            
     e( 39 - 39) =     32.31340  eV     1   --> B_u            
     e( 40 - 40) =     32.79292  eV     1   --> A_g            

 **************************************************************************

 **************************************************************************

                    xk=(   0.08838,   0.61872,   0.08838  )

     point group C_s (m)    
     there are  2 classes
     the character table:

       E     s    
A'     1.00  1.00
A''    1.00 -1.00

     the symmetry operations in each class and the name of the first element:

     E        1
                                                                 
     s        2
                                                                 

     Band symmetry, C_s (m)     point group:

     e(  1 -  1) =    -25.90696  eV     1   --> A'             
     e(  2 -  2) =    -25.78727  eV     1   --> A'             
     e(  3 -  3) =    -11.02360  eV     1   --> A'             
     e(  4 -  4) =     -8.98430  eV     1   --> A'             
     e(  5 -  5) =     -8.95836  eV     1   --> A''            
     e(  6 -  6) =     -8.52812  eV     1   --> A'             
     e(  7 -  7) =     -8.01855  eV     1   --> A'             
     e(  8 -  8) =     -8.01096  eV     1   --> A''            
     e(  9 -  9) =     -7.92183  eV     1   --> A'             
     e( 10 - 10) =      4.30960  eV     1   --> A'             
     e( 11 - 11) =      4.93522  eV     1   --> A'             
     e( 12 - 12) =      4.95296  eV     1   --> A''            
     e( 13 - 13) =      8.61314  eV     1   --> A'             
     e( 14 - 14) =     11.73406  eV     1   --> A'             
     e( 15 - 15) =     12.10413  eV     1   --> A'             
     e( 16 - 16) =     12.21552  eV     1   --> A''            
     e( 17 - 17) =     13.69509  eV     1   --> A'             
     e( 18 - 18) =     13.76516  eV     1   --> A''            
     e( 19 - 19) =     14.26164  eV     1   --> A'             
     e( 20 - 20) =     15.22031  eV     1   --> A''            
     e( 21 - 21) =     15.34056  eV     1   --> A'             
     e( 22 - 22) =     17.12066  eV     1   --> A''            
     e( 23 - 23) =     17.12405  eV     1   --> A'             
     e( 24 - 24) =     17.37156  eV     1   --> A'             
     e( 25 - 25) =     19.12876  eV     1   --> A''            
     e( 26 - 26) =     19.56858  eV     1   --> A'             
     e( 27 - 27) =     20.68130  eV     1   --> A''            
     e( 28 - 28) =     21.94314  eV     1   --> A'             
     e( 29 - 29) =     22.52662  eV     1   --> A'             
     e( 30 - 30) =     24.86731  eV     1   --> A'             
     e( 31 - 31) =     25.31994  eV     1   --> A''            
     e( 32 - 32) =     25.56779  eV     1   --> A'             
     e( 33 - 33) =     26.48713  eV     1   --> A''            
     e( 34 - 34) =     27.57418  eV     1   --> A'             
     e( 35 - 35) =     28.70053  eV     1   --> A'             
     e( 36 - 36) =     30.90182  eV     1   --> A'             
     e( 37 - 37) =     31.38695  eV     1   --> A'             
     e( 38 - 38) =     31.53865  eV     1   --> A''            
     e( 39 - 39) =     32.00254  eV     1   --> A'             
     e( 40 - 40) =     32.53859  eV     1   --> A'             

 **************************************************************************

 **************************************************************************

                    xk=(   0.17677,   0.53033,   0.17677  )

     Band symmetry, C_s (m)     point group:

     e(  1 -  1) =    -25.89481  eV     1   --> A'             
     e(  2 -  2) =    -25.80280  eV     1   --> A'             
     e(  3 -  3) =    -10.96478  eV     1   --> A'             
     e(  4 -  4) =     -8.91043  eV     1   --> A'             
     e(  5 -  5) =     -8.84641  eV     1   --> A''            
     e(  6 -  6) =     -8.46411  eV     1   --> A'             
     e(  7 -  7) =     -8.12085  eV     1   --> A''            
     e(  8 -  8) =     -8.11414  eV     1   --> A'             
     e(  9 -  9) =     -8.05020  eV     1   --> A'             
     e( 10 - 10) =      4.44242  eV     1   --> A'             
     e( 11 - 11) =      4.81956  eV     1   --> A'             
     e( 12 - 12) =      4.87795  eV     1   --> A''            
     e( 13 - 13) =      8.85618  eV     1   --> A'             
     e( 14 - 14) =     11.58340  eV     1   --> A'             
     e( 15 - 15) =     12.34481  eV     1   --> A''            
     e( 16 - 16) =     12.36379  eV     1   --> A'             
     e( 17 - 17) =     13.32383  eV     1   --> A''            
     e( 18 - 18) =     13.84555  eV     1   --> A'             
     e( 19 - 19) =     14.12947  eV     1   --> A'             
     e( 20 - 20) =     15.37602  eV     1   --> A''            
     e( 21 - 21) =     15.50701  eV     1   --> A'             
     e( 22 - 22) =     16.23289  eV     1   --> A''            
     e( 23 - 23) =     16.33333  eV     1   --> A'             
     e( 24 - 24) =     16.90418  eV     1   --> A'             
     e( 25 - 25) =     19.80604  eV     1   --> A'             
     e( 26 - 26) =     19.99378  eV     1   --> A''            
     e( 27 - 27) =     21.69932  eV     1   --> A'             
     e( 28 - 28) =     22.05910  eV     1   --> A''            
     e( 29 - 29) =     23.22195  eV     1   --> A'             
     e( 30 - 30) =     24.33430  eV     1   --> A'             
     e( 31 - 31) =     25.32752  eV     1   --> A''            
     e( 32 - 32) =     25.64140  eV     1   --> A'             
     e( 33 - 33) =     27.08197  eV     1   --> A''            
     e( 34 - 34) =     28.03682  eV     1   --> A'             
     e( 35 - 35) =     28.89895  eV     1   --> A'             
     e( 36 - 36) =     30.39863  eV     1   --> A'             
     e( 37 - 37) =     30.96740  eV     1   --> A'             
     e( 38 - 38) =     31.25317  eV     1   --> A''            
     e( 39 - 39) =     31.39571  eV     1   --> A'             
     e( 40 - 40) =     32.62692  eV     1   --> A''            

 **************************************************************************

 **************************************************************************

                    xk=(   0.26516,   0.44194,   0.26516  )

     Band symmetry, C_s (m)     point group:

     e(  1 -  1) =    -25.87551  eV     1   --> A'             
     e(  2 -  2) =    -25.82549  eV     1   --> A'             
     e(  3 -  3) =    -10.90359  eV     1   --> A'             
     e(  4 -  4) =     -8.74904  eV     1   --> A'             
     e(  5 -  5) =     -8.67916  eV     1   --> A''            
     e(  6 -  6) =     -8.47621  eV     1   --> A'             
     e(  7 -  7) =     -8.28601  eV     1   --> A''            
     e(  8 -  8) =     -8.26782  eV     1   --> A'             
     e(  9 -  9) =     -8.13384  eV     1   --> A'             
     e( 10 - 10) =      4.53373  eV     1   --> A'             
     e( 11 - 11) =      4.74889  eV     1   --> A'             
     e( 12 - 12) =      4.80264  eV     1   --> A''            
     e( 13 - 13) =      9.12626  eV     1   --> A'             
     e( 14 - 14) =     11.79206  eV     1   --> A'             
     e( 15 - 15) =     12.23947  eV     1   --> A''            
     e( 16 - 16) =     12.31949  eV     1   --> A'             
     e( 17 - 17) =     13.50558  eV     1   --> A''            
     e( 18 - 18) =     13.80790  eV     1   --> A'             
     e( 19 - 19) =     14.43640  eV     1   --> A'             
     e( 20 - 20) =     15.04640  eV     1   --> A'             
     e( 21 - 21) =     15.12146  eV     1   --> A''            
     e( 22 - 22) =     15.59649  eV     1   --> A''            
     e( 23 - 23) =     15.80354  eV     1   --> A'             
     e( 24 - 24) =     16.29531  eV     1   --> A'             
     e( 25 - 25) =     20.36563  eV     1   --> A'             
     e( 26 - 26) =     20.95058  eV     1   --> A''            
     e( 27 - 27) =     21.73319  eV     1   --> A'             
     e( 28 - 28) =     23.51831  eV     1   --> A''            
     e( 29 - 29) =     23.79433  eV     1   --> A'             
     e( 30 - 30) =     24.44744  eV     1   --> A'             
     e( 31 - 31) =     25.34624  eV     1   --> A''            
     e( 32 - 32) =     25.82838  eV     1   --> A'             
     e( 33 - 33) =     27.24063  eV     1   --> A''            
     e( 34 - 34) =     27.61719  eV     1   --> A'             
     e( 35 - 35) =     28.13085  eV     1   --> A'             
     e( 36 - 36) =     29.05108  eV     1   --> A'             
     e( 37 - 37) =     30.39749  eV     1   --> A'             
     e( 38 - 38) =     30.63693  eV     1   --> A''            
     e( 39 - 39) =     32.21130  eV     1   --> A'             
     e( 40 - 40) =     32.47870  eV     1   --> A''            

 **************************************************************************

 **************************************************************************

                    xk=(   0.35355,   0.35355,   0.35355  )

     point group D_3d (-3m) 
     there are  6 classes
     the character table:

       E     2C3   3C2'  i     2S6   3s_d 
A_1g   1.00  1.00  1.00  1.00  1.00  1.00
A_2g   1.00  1.00 -1.00  1.00  1.00 -1.00
E_g    2.00 -1.00  0.00  2.00 -1.00  0.00
A_1u   1.00  1.00  1.00 -1.00 -1.00 -1.00
A_2u   1.00  1.00 -1.00 -1.00 -1.00  1.00
E_u    2.00 -1.00  0.00 -2.00  1.00  0.00

     the symmetry operations in each class and the name of the first element:

     E        1
                                                                 
     2C3      5    6
                                                                 
     3C2'     2    4    3
                                                                 
     i        7
                                                                 
     2S6     11   12
                                                                 
     3s_d     8   10    9
                                                                 

     Band symmetry, D_3d (-3m)  point group:

     e(  1 -  1) =    -25.85203  eV     1   --> A_1g L_1       
     e(  2 -  2) =    -25.85038  eV     1   --> A_2u L_2'      
     e(  3 -  3) =    -10.87727  eV     1   --> A_1g L_1       
     e(  4 -  4) =     -8.56984  eV     1   --> A_2u L_2'      
     e(  5 -  6) =     -8.49120  eV     2   --> E_u  L_3'      
     e(  7 -  8) =     -8.47310  eV     2   --> E_g  L_3       
     e(  9 -  9) =     -8.13006  eV     1   --> A_1g L_1       
     e( 10 - 10) =      4.51913  eV     1   --> A_2u L_2'      
     e( 11 - 12) =      4.77138  eV     2   --> E_u  L_3'      
     e( 13 - 13) =      9.29406  eV     1   --> A_2u L_2'      
     e( 14 - 14) =     11.91793  eV     1   --> A_1g L_1       
     e( 15 - 16) =     12.13223  eV     2   --> E_g  L_3       
     e( 17 - 18) =     14.02267  eV     2   --> E_u  L_3'      
     e( 19 - 20) =     14.43473  eV     2   --> E_g  L_3       
     e( 21 - 21) =     14.90073  eV     1   --> A_1g L_1       
     e( 22 - 23) =     15.57381  eV     2   --> E_u  L_3'      
     e( 24 - 24) =     15.96482  eV     1   --> A_2u L_2'      
     e( 25 - 25) =     20.88598  eV     1   --> A_2u L_2'      
     e( 26 - 27) =     21.46372  eV     2   --> E_g  L_3       
     e( 28 - 29) =     23.91031  eV     2   --> E_u  L_3'      
     e( 30 - 30) =     25.19219  eV     1   --> A_1g L_1       
     e( 31 - 32) =     26.01832  eV     2   --> E_g  L_3       
     e( 33 - 34) =     26.60732  eV     2   --> E_u  L_3'      
     e( 35 - 35) =     27.81177  eV     1   --> A_1g L_1       
     e( 36 - 36) =     28.48840  eV     1   --> A_2u L_2'      
     e( 37 - 38) =     30.29166  eV     2   --> E_g  L_3       
     e( 39 - 40) =     33.09967  eV     2   --> E_u  L_3'      

 **************************************************************************

 **************************************************************************

                    xk=(   0.32406,   0.32406,   0.32406  )

     point group C_3v (3m)  
     there are  3 classes
     the character table:

       E     2C3   3s_v 
A_1    1.00  1.00  1.00
A_2    1.00  1.00 -1.00
E      2.00 -1.00  0.00

     the symmetry operations in each class and the name of the first element:

     E        1
                                                                 
     2C3      2    3
                                                                 
     3s_v     4    5    6
                                                                 

     Band symmetry, C_3v (3m)   point group:

     e(  1 -  1) =    -25.87697  eV     1   --> A_1  L_1       
     e(  2 -  2) =    -25.82565  eV     1   --> A_1  L_1       
     e(  3 -  3) =    -10.87212  eV     1   --> A_1  L_1       
     e(  4 -  4) =     -8.57750  eV     1   --> A_1  L_1       
     e(  5 -  6) =     -8.52821  eV     2   --> E    L_3       
     e(  7 -  8) =     -8.43474  eV     2   --> E    L_3       
     e(  9 -  9) =     -8.12526  eV     1   --> A_1  L_1       
     e( 10 - 10) =      4.51250  eV     1   --> A_1  L_1       
     e( 11 - 12) =      4.76620  eV     2   --> E    L_3       
     e( 13 - 13) =      9.27039  eV     1   --> A_1  L_1       
     e( 14 - 14) =     11.90362  eV     1   --> A_1  L_1       
     e( 15 - 16) =     12.09625  eV     2   --> E    L_3       
     e( 17 - 18) =     13.95126  eV     2   --> E    L_3       
     e( 19 - 20) =     14.53247  eV     2   --> E    L_3       
     e( 21 - 21) =     14.91648  eV     1   --> A_1  L_1       
     e( 22 - 23) =     15.61565  eV     2   --> E    L_3       
     e( 24 - 24) =     16.04157  eV     1   --> A_1  L_1       
     e( 25 - 25) =     20.86093  eV     1   --> A_1  L_1       
     e( 26 - 27) =     21.46315  eV     2   --> E    L_3       
     e( 28 - 29) =     23.86527  eV     2   --> E    L_3       
     e( 30 - 30) =     25.24174  eV     1   --> A_1  L_1       
     e( 31 - 32) =     26.05880  eV     2   --> E    L_3       
     e( 33 - 34) =     26.52835  eV     2   --> E    L_3       
     e( 35 - 35) =     27.34729  eV     1   --> A_1  L_1       
     e( 36 - 36) =     28.95473  eV     1   --> A_1  L_1       
     e( 37 - 38) =     30.39351  eV     2   --> E    L_3       
     e( 39 - 39) =     32.72452  eV     1   --> A_2  L_2       
     e( 40 - 40) =     33.14184  eV     1   -->   ?

 **************************************************************************

 **************************************************************************

                    xk=(   0.29465,   0.29465,   0.29465  )

     Band symmetry, C_3v (3m)   point group:

     e(  1 -  1) =    -25.90243  eV     1   --> A_1  L_1       
     e(  2 -  2) =    -25.80080  eV     1   --> A_1  L_1       
     e(  3 -  3) =    -10.85704  eV     1   --> A_1  L_1       
     e(  4 -  4) =     -8.59853  eV     1   --> A_1  L_1       
     e(  5 -  6) =     -8.57079  eV     2   --> E    L_3       
     e(  7 -  8) =     -8.38822  eV     2   --> E    L_3       
     e(  9 -  9) =     -8.11267  eV     1   --> A_1  L_1       
     e( 10 - 10) =      4.49393  eV     1   --> A_1  L_1       
     e( 11 - 12) =      4.75110  eV     2   --> E    L_3       
     e( 13 - 13) =      9.19867  eV     1   --> A_1  L_1       
     e( 14 - 14) =     11.86419  eV     1   --> A_1  L_1       
     e( 15 - 16) =     11.99944  eV     2   --> E    L_3       
     e( 17 - 18) =     13.80561  eV     2   --> E    L_3       
     e( 19 - 20) =     14.75507  eV     2   --> E    L_3       
     e( 21 - 21) =     14.99094  eV     1   --> A_1  L_1       
     e( 22 - 23) =     15.73077  eV     2   --> E    L_3       
     e( 24 - 24) =     16.23799  eV     1   --> A_1  L_1       
     e( 25 - 25) =     20.79054  eV     1   --> A_1  L_1       
     e( 26 - 27) =     21.46050  eV     2   --> E    L_3       
     e( 28 - 29) =     23.73998  eV     2   --> E    L_3       
     e( 30 - 30) =     25.38118  eV     1   --> A_1  L_1       
     e( 31 - 32) =     26.16967  eV     2   --> E    L_3       
     e( 33 - 34) =     26.32331  eV     2   --> E    L_3       
     e( 35 - 35) =     26.66948  eV     1   --> A_1  L_1       
     e( 36 - 36) =     29.64189  eV     1   --> A_1  L_1       
     e( 37 - 38) =     30.66003  eV     2   --> E    L_3       
     e( 39 - 39) =     32.31493  eV     1   --> A_2  L_2       
     e( 40 - 40) =     33.27141  eV     1   -->   ?

 **************************************************************************

 **************************************************************************

                    xk=(   0.26516,   0.26516,   0.26516  )

     Band symmetry, C_3v (3m)   point group:

     e(  1 -  1) =    -25.92726  eV     1   --> A_1  L_1       
     e(  2 -  2) =    -25.77694  eV     1   --> A_1  L_1       
     e(  3 -  3) =    -10.83289  eV     1   --> A_1  L_1       
     e(  4 -  4) =     -8.62856  eV     1   --> A_1  L_1       
     e(  5 -  6) =     -8.61107  eV     2   --> E    L_3       
     e(  7 -  8) =     -8.34165  eV     2   --> E    L_3       
     e(  9 -  9) =     -8.09628  eV     1   --> A_1  L_1       
     e( 10 - 10) =      4.46695  eV     1   --> A_1  L_1       
     e( 11 - 12) =      4.72712  eV     2   --> E    L_3       
     e( 13 - 13) =      9.07583  eV     1   --> A_1  L_1       
     e( 14 - 14) =     11.81373  eV     1   --> A_1  L_1       
     e( 15 - 16) =     11.86511  eV     2   --> E    L_3       
     e( 17 - 18) =     13.63562  eV     2   --> E    L_3       
     e( 19 - 20) =     15.04851  eV     2   --> E    L_3       
     e( 21 - 21) =     15.16389  eV     1   --> A_1  L_1       
     e( 22 - 23) =     15.89769  eV     2   --> E    L_3       
     e( 24 - 24) =     16.49462  eV     1   --> A_1  L_1       
     e( 25 - 25) =     20.68485  eV     1   --> A_1  L_1       
     e( 26 - 27) =     21.45209  eV     2   --> E    L_3       
     e( 28 - 29) =     23.55521  eV     2   --> E    L_3       
     e( 30 - 30) =     25.57520  eV     1   --> A_1  L_1       
     e( 31 - 31) =     26.00990  eV     1   --> A_1  L_1       
     e( 32 - 33) =     26.05531  eV     2   --> E    L_3       
     e( 34 - 35) =     26.32921  eV     2   --> E    L_3       
     e( 36 - 36) =     30.33824  eV     1   --> A_1  L_1       
     e( 37 - 38) =     31.00406  eV     2   --> E    L_3       
     e( 39 - 39) =     31.94216  eV     1   --> A_2  L_2       
     e( 40 - 40) =     33.50212  eV     1   -->   ?

 **************************************************************************

 **************************************************************************

                    xk=(   0.23568,   0.23568,   0.23568  )

     Band symmetry, C_3v (3m)   point group:

     e(  1 -  1) =    -25.95097  eV     1   --> A_1  L_1       
     e(  2 -  2) =    -25.75450  eV     1   --> A_1  L_1       
     e(  3 -  3) =    -10.80122  eV     1   --> A_1  L_1       
     e(  4 -  4) =     -8.66266  eV     1   --> A_1  L_1       
     e(  5 -  6) =     -8.64822  eV     2   --> E    L_3       
     e(  7 -  8) =     -8.29629  eV     2   --> E    L_3       
     e(  9 -  9) =     -8.08033  eV     1   --> A_1  L_1       
     e( 10 - 10) =      4.43697  eV     1   --> A_1  L_1       
     e( 11 - 12) =      4.69605  eV     2   --> E    L_3       
     e( 13 - 13) =      8.89930  eV     1   --> A_1  L_1       
     e( 14 - 15) =     11.71632  eV     2   --> E    L_3       
     e( 16 - 16) =     11.77848  eV     1   --> A_1  L_1       
     e( 17 - 18) =     13.45708  eV     2   --> E    L_3       
     e( 19 - 20) =     15.39172  eV     2   --> E    L_3       
     e( 21 - 21) =     15.44336  eV     1   --> A_1  L_1       
     e( 22 - 23) =     16.09398  eV     2   --> E    L_3       
     e( 24 - 24) =     16.76515  eV     1   --> A_1  L_1       
     e( 25 - 25) =     20.55332  eV     1   --> A_1  L_1       
     e( 26 - 27) =     21.42900  eV     2   --> E    L_3       
     e( 28 - 29) =     23.33558  eV     2   --> E    L_3       
     e( 30 - 30) =     25.30262  eV     1   --> A_1  L_1       
     e( 31 - 32) =     25.78315  eV     2   --> E    L_3       
     e( 33 - 33) =     25.90072  eV     1   --> A_1  L_1       
     e( 34 - 35) =     26.51444  eV     2   --> E    L_3       
     e( 36 - 36) =     30.98667  eV     1   --> A_1  L_1       
     e( 37 - 38) =     31.32215  eV     2   --> E    L_3       
     e( 39 - 39) =     31.60833  eV     1   --> A_2  L_2       
     e( 40 - 40) =     33.40244  eV     1   --> A_1  L_1       

 **************************************************************************

 **************************************************************************

                    xk=(   0.20626,   0.20626,   0.20626  )

     Band symmetry, C_3v (3m)   point group:

     e(  1 -  1) =    -25.97305  eV     1   --> A_1  L_1       
     e(  2 -  2) =    -25.73388  eV     1   --> A_1  L_1       
     e(  3 -  3) =    -10.76418  eV     1   --> A_1  L_1       
     e(  4 -  4) =     -8.69656  eV     1   --> A_1  L_1       
     e(  5 -  6) =     -8.68170  eV     2   --> E    L_3       
     e(  7 -  8) =     -8.25327  eV     2   --> E    L_3       
     e(  9 -  9) =     -8.06803  eV     1   --> A_1  L_1       
     e( 10 - 10) =      4.41021  eV     1   --> A_1  L_1       
     e( 11 - 12) =      4.66022  eV     2   --> E    L_3       
     e( 13 - 13) =      8.67192  eV     1   --> A_1  L_1       
     e( 14 - 15) =     11.56977  eV     2   --> E    L_3       
     e( 16 - 16) =     11.78468  eV     1   --> A_1  L_1       
     e( 17 - 18) =     13.27947  eV     2   --> E    L_3       
     e( 19 - 20) =     15.77047  eV     2   --> E    L_3       
     e( 21 - 21) =     15.80685  eV     1   --> A_1  L_1       
     e( 22 - 23) =     16.30127  eV     2   --> E    L_3       
     e( 24 - 24) =     17.02485  eV     1   --> A_1  L_1       
     e( 25 - 25) =     20.39927  eV     1   --> A_1  L_1       
     e( 26 - 27) =     21.37305  eV     2   --> E    L_3       
     e( 28 - 29) =     23.11002  eV     2   --> E    L_3       
     e( 30 - 30) =     24.72812  eV     1   --> A_1  L_1       
     e( 31 - 32) =     25.54709  eV     2   --> E    L_3       
     e( 33 - 33) =     26.17696  eV     1   --> A_1  L_1       
     e( 34 - 35) =     26.70739  eV     2   --> E    L_3       
     e( 36 - 36) =     31.31432  eV     1   --> A_2  L_2       
     e( 37 - 37) =     31.37289  eV     1   --> A_1  L_1       
     e( 38 - 39) =     31.52173  eV     2   --> E    L_3       
     e( 40 - 40) =     32.86923  eV     1   --> A_1  L_1       

 **************************************************************************

 **************************************************************************

                    xk=(   0.17677,   0.17677,   0.17677  )

     Band symmetry, C_3v (3m)   point group:

     e(  1 -  1) =    -25.99321  eV     1   --> A_1  L_1       
     e(  2 -  2) =    -25.71530  eV     1   --> A_1  L_1       
     e(  3 -  3) =    -10.72408  eV     1   --> A_1  L_1       
     e(  4 -  4) =     -8.72725  eV     1   --> A_1  L_1       
     e(  5 -  6) =     -8.71130  eV     2   --> E    L_3       
     e(  7 -  8) =     -8.21338  eV     2   --> E    L_3       
     e(  9 -  9) =     -8.06116  eV     1   --> A_1  L_1       
     e( 10 - 10) =      4.39234  eV     1   --> A_1  L_1       
     e( 11 - 12) =      4.62200  eV     2   --> E    L_3       
     e( 13 - 13) =      8.40387  eV     1   --> A_1  L_1       
     e( 14 - 15) =     11.43490  eV     2   --> E    L_3       
     e( 16 - 16) =     11.84554  eV     1   --> A_1  L_1       
     e( 17 - 18) =     13.10910  eV     2   --> E    L_3       
     e( 19 - 20) =     16.17564  eV     2   --> E    L_3       
     e( 21 - 21) =     16.21398  eV     1   --> A_1  L_1       
     e( 22 - 23) =     16.50775  eV     2   --> E    L_3       
     e( 24 - 24) =     17.27485  eV     1   --> A_1  L_1       
     e( 25 - 25) =     20.21815  eV     1   --> A_1  L_1       
     e( 26 - 27) =     21.25429  eV     2   --> E    L_3       
     e( 28 - 29) =     22.91370  eV     2   --> E    L_3       
     e( 30 - 30) =     24.21922  eV     1   --> A_1  L_1       
     e( 31 - 32) =     25.36946  eV     2   --> E    L_3       
     e( 33 - 33) =     26.46793  eV     1   --> A_1  L_1       
     e( 34 - 35) =     26.89550  eV     2   --> E    L_3       
     e( 36 - 36) =     31.05400  eV     1   --> A_1  L_1       
     e( 37 - 37) =     31.05880  eV     1   --> A_2  L_2       
     e( 38 - 39) =     31.55408  eV     2   --> E    L_3       
     e( 40 - 40) =     33.09098  eV     1   --> A_1  L_1       

 **************************************************************************

 **************************************************************************

                    xk=(   0.14729,   0.14729,   0.14729  )

     Band symmetry, C_3v (3m)   point group:

     e(  1 -  1) =    -26.01099  eV     1   --> A_1  L_1       
     e(  2 -  2) =    -25.69909  eV     1   --> A_1  L_1       
     e(  3 -  3) =    -10.68378  eV     1   --> A_1  L_1       
     e(  4 -  4) =     -8.75256  eV     1   --> A_1  L_1       
     e(  5 -  6) =     -8.73667  eV     2   --> E    L_3       
     e(  7 -  8) =     -8.17770  eV     2   --> E    L_3       
     e(  9 -  9) =     -8.06025  eV     1   --> A_1  L_1       
     e( 10 - 10) =      4.38762  eV     1   --> A_1  L_1       
     e( 11 - 12) =      4.58409  eV     2   --> E    L_3       
     e( 13 - 13) =      8.11509  eV     1   --> A_1  L_1       
     e( 14 - 15) =     11.31783  eV     2   --> E    L_3       
     e( 16 - 16) =     11.95787  eV     1   --> A_1  L_1       
     e( 17 - 18) =     12.95260  eV     2   --> E    L_3       
     e( 19 - 20) =     16.58200  eV     2   --> E    L_3       
     e( 21 - 21) =     16.59784  eV     1   --> A_1  L_1       
     e( 22 - 23) =     16.71893  eV     2   --> E    L_3       
     e( 24 - 24) =     17.54647  eV     1   --> A_1  L_1       
     e( 25 - 25) =     20.00619  eV     1   --> A_1  L_1       
     e( 26 - 27) =     21.04316  eV     2   --> E    L_3       
     e( 28 - 29) =     22.78132  eV     2   --> E    L_3       
     e( 30 - 30) =     23.79712  eV     1   --> A_1  L_1       
     e( 31 - 32) =     25.26134  eV     2   --> E    L_3       
     e( 33 - 33) =     26.74586  eV     1   --> A_1  L_1       
     e( 34 - 35) =     27.06731  eV     2   --> E    L_3       
     e( 36 - 36) =     30.40332  eV     1   --> A_1  L_1       
     e( 37 - 37) =     30.84258  eV     1   --> A_2  L_2       
     e( 38 - 39) =     31.42446  eV     2   --> E    L_3       
     e( 40 - 40) =     33.67180  eV     1   --> A_1  L_1       

 **************************************************************************

 **************************************************************************

                    xk=(   0.11787,   0.11787,   0.11787  )

     Band symmetry, C_3v (3m)   point group:

     e(  1 -  1) =    -26.02601  eV     1   --> A_1  L_1       
     e(  2 -  2) =    -25.68552  eV     1   --> A_1  L_1       
     e(  3 -  3) =    -10.64619  eV     1   --> A_1  L_1       
     e(  4 -  4) =     -8.77142  eV     1   --> A_1  L_1       
     e(  5 -  6) =     -8.75759  eV     2   --> E    L_3       
     e(  7 -  8) =     -8.14718  eV     2   --> E    L_3       
     e(  9 -  9) =     -8.06453  eV     1   --> A_1  L_1       
     e( 10 - 10) =      4.39733  eV     1   --> A_1  L_1       
     e( 11 - 12) =      4.54913  eV     2   --> E    L_3       
     e( 13 - 13) =      7.82980  eV     1   --> A_1  L_1       
     e( 14 - 15) =     11.22171  eV     2   --> E    L_3       
     e( 16 - 16) =     12.10552  eV     1   --> A_1  L_1       
     e( 17 - 18) =     12.81580  eV     2   --> E    L_3       
     e( 19 - 20) =     16.82810  eV     2   --> E    L_3       
     e( 21 - 21) =     16.87863  eV     1   --> A_1  L_1       
     e( 22 - 23) =     17.08084  eV     2   --> E    L_3       
     e( 24 - 24) =     17.89002  eV     1   --> A_1  L_1       
     e( 25 - 25) =     19.77020  eV     1   --> A_1  L_1       
     e( 26 - 27) =     20.73512  eV     2   --> E    L_3       
     e( 28 - 29) =     22.72056  eV     2   --> E    L_3       
     e( 30 - 30) =     23.45868  eV     1   --> A_1  L_1       
     e( 31 - 32) =     25.22259  eV     2   --> E    L_3       
     e( 33 - 33) =     26.99355  eV     1   --> A_1  L_1       
     e( 34 - 35) =     27.21300  eV     2   --> E    L_3       
     e( 36 - 36) =     29.76399  eV     1   --> A_1  L_1       
     e( 37 - 37) =     30.66605  eV     1   --> A_2  L_2       
     e( 38 - 39) =     31.18000  eV     2   --> E    L_3       
     e( 40 - 40) =     34.10925  eV     1   --> A_1  L_1       

 **************************************************************************

 **************************************************************************

                    xk=(   0.08839,   0.08839,   0.08839  )

     Band symmetry, C_3v (3m)   point group:

     e(  1 -  1) =    -26.03805  eV     1   --> A_1  L_1       
     e(  2 -  2) =    -25.67473  eV     1   --> A_1  L_1       
     e(  3 -  3) =    -10.61380  eV     1   --> A_1  L_1       
     e(  4 -  4) =     -8.78399  eV     1   --> A_1  L_1       
     e(  5 -  6) =     -8.77402  eV     2   --> E    L_3       
     e(  7 -  8) =     -8.12249  eV     2   --> E    L_3       
     e(  9 -  9) =     -8.07221  eV     1   --> A_1  L_1       
     e( 10 - 10) =      4.41902  eV     1   --> A_1  L_1       
     e( 11 - 12) =      4.51925  eV     2   --> E    L_3       
     e( 13 - 13) =      7.57096  eV     1   --> A_1  L_1       
     e( 14 - 15) =     11.14718  eV     2   --> E    L_3       
     e( 16 - 16) =     12.26579  eV     1   --> A_1  L_1       
     e( 17 - 18) =     12.70304  eV     2   --> E    L_3       
     e( 19 - 20) =     16.96675  eV     2   --> E    L_3       
     e( 21 - 21) =     17.03513  eV     1   --> A_1  L_1       
     e( 22 - 23) =     17.53312  eV     2   --> E    L_3       
     e( 24 - 24) =     18.30122  eV     1   --> A_1  L_1       
     e( 25 - 25) =     19.53165  eV     1   --> A_1  L_1       
     e( 26 - 27) =     20.35035  eV     2   --> E    L_3       
     e( 28 - 29) =     22.70973  eV     2   --> E    L_3       
     e( 30 - 30) =     23.18452  eV     1   --> A_1  L_1       
     e( 31 - 32) =     25.24227  eV     2   --> E    L_3       
     e( 33 - 33) =     27.19755  eV     1   --> A_1  L_1       
     e( 34 - 35) =     27.32550  eV     2   --> E    L_3       
     e( 36 - 36) =     29.22479  eV     1   --> A_1  L_1       
     e( 37 - 37) =     30.52840  eV     1   --> A_2  L_2       
     e( 38 - 39) =     30.88573  eV     2   --> E    L_3       
     e( 40 - 40) =     34.10447  eV     1   --> A_1  L_1       

 **************************************************************************

 **************************************************************************

                    xk=(   0.05890,   0.05890,   0.05890  )

     Band symmetry, C_3v (3m)   point group:

     e(  1 -  1) =    -26.04683  eV     1   --> A_1  L_1       
     e(  2 -  2) =    -25.66691  eV     1   --> A_1  L_1       
     e(  3 -  3) =    -10.58897  eV     1   --> A_1  L_1       
     e(  4 -  4) =     -8.79119  eV     1   --> A_1  L_1       
     e(  5 -  6) =     -8.78580  eV     2   --> E    L_3       
     e(  7 -  8) =     -8.10435  eV     2   --> E    L_3       
     e(  9 -  9) =     -8.08070  eV     1   --> A_1  L_1       
     e( 10 - 10) =      4.44600  eV     1   --> A_1  L_1       
     e( 11 - 12) =      4.49646  eV     2   --> E    L_3       
     e( 13 - 13) =      7.36293  eV     1   --> A_1  L_1       
     e( 14 - 15) =     11.09454  eV     2   --> E    L_3       
     e( 16 - 16) =     12.41068  eV     1   --> A_1  L_1       
     e( 17 - 18) =     12.61899  eV     2   --> E    L_3       
     e( 19 - 20) =     17.06367  eV     2   --> E    L_3       
     e( 21 - 21) =     17.10707  eV     1   --> A_1  L_1       
     e( 22 - 23) =     18.00028  eV     2   --> E    L_3       
     e( 24 - 24) =     18.70133  eV     1   --> A_1  L_1       
     e( 25 - 25) =     19.32534  eV     1   --> A_1  L_1       
     e( 26 - 27) =     19.91805  eV     2   --> E    L_3       
     e( 28 - 29) =     22.72105  eV     2   --> E    L_3       
     e( 30 - 30) =     22.96169  eV     1   --> A_1  L_1       
     e( 31 - 32) =     25.29754  eV     2   --> E    L_3       
     e( 33 - 33) =     27.34359  eV     1   --> A_1  L_1       
     e( 34 - 35) =     27.40023  eV     2   --> E    L_3       
     e( 36 - 36) =     28.82998  eV     1   --> A_1  L_1       
     e( 37 - 37) =     30.43009  eV     1   --> A_2  L_2       
     e( 38 - 39) =     30.61183  eV     2   --> E    L_3       
     e( 40 - 40) =     33.91843  eV     1   --> A_1  L_1       

 **************************************************************************

 **************************************************************************

                    xk=(   0.02949,   0.02949,   0.02949  )

     Band symmetry, C_3v (3m)   point group:

     e(  1 -  1) =    -26.05216  eV     1   --> A_1  L_1       
     e(  2 -  2) =    -25.66218  eV     1   --> A_1  L_1       
     e(  3 -  3) =    -10.57342  eV     1   --> A_1  L_1       
     e(  4 -  4) =     -8.79457  eV     1   --> A_1  L_1       
     e(  5 -  6) =     -8.79288  eV     2   --> E    L_3       
     e(  7 -  8) =     -8.09329  eV     2   --> E    L_3       
     e(  9 -  9) =     -8.08724  eV     1   --> A_1  L_1       
     e( 10 - 10) =      4.46850  eV     1   --> A_1  L_1       
     e( 11 - 12) =      4.48222  eV     2   --> E    L_3       
     e( 13 - 13) =      7.22749  eV     1   --> A_1  L_1       
     e( 14 - 15) =     11.06336  eV     2   --> E    L_3       
     e( 16 - 16) =     12.51214  eV     1   --> A_1  L_1       
     e( 17 - 18) =     12.56719  eV     2   --> E    L_3       
     e( 19 - 20) =     17.12164  eV     2   --> E    L_3       
     e( 21 - 21) =     17.13447  eV     1   --> A_1  L_1       
     e( 22 - 23) =     18.46797  eV     2   --> E    L_3       
     e( 24 - 24) =     18.99725  eV     1   --> A_1  L_1       
     e( 25 - 25) =     19.18601  eV     1   --> A_1  L_1       
     e( 26 - 27) =     19.46540  eV     2   --> E    L_3       
     e( 28 - 29) =     22.73457  eV     2   --> E    L_3       
     e( 30 - 30) =     22.80190  eV     1   --> A_1  L_1       
     e( 31 - 32) =     25.35420  eV     2   --> E    L_3       
     e( 33 - 33) =     27.42459  eV     1   --> A_1  L_1       
     e( 34 - 35) =     27.43937  eV     2   --> E    L_3       
     e( 36 - 36) =     28.59896  eV     1   --> A_1  L_1       
     e( 37 - 37) =     30.37124  eV     1   --> A_2  L_2       
     e( 38 - 39) =     30.41967  eV     2   --> E    L_3       
     e( 40 - 40) =     33.76629  eV     1   --> A_1  L_1       

 **************************************************************************

 **************************************************************************

                    xk=(   0.00000,   0.00000,   0.00000  )

     point group D_3d (-3m) 
     there are  6 classes
     the character table:

       E     2C3   3C2'  i     2S6   3s_d 
A_1g   1.00  1.00  1.00  1.00  1.00  1.00
A_2g   1.00  1.00 -1.00  1.00  1.00 -1.00
E_g    2.00 -1.00  0.00  2.00 -1.00  0.00
A_1u   1.00  1.00  1.00 -1.00 -1.00 -1.00
A_2u   1.00  1.00 -1.00 -1.00 -1.00  1.00
E_u    2.00 -1.00  0.00 -2.00  1.00  0.00

     the symmetry operations in each class and the name of the first element:

     E        1
                                                                 
     2C3      5    6
                                                                 
     3C2'     2    4    3
                                                                 
     i        7
                                                                 
     2S6     11   12
                                                                 
     3s_d     8   10    9
                                                                 

     Band symmetry, D_3d (-3m)  point group:

     e(  1 -  1) =    -26.05395  eV     1   --> A_1g L_1       
     e(  2 -  2) =    -25.66059  eV     1   --> A_2u L_2'      
     e(  3 -  3) =    -10.56811  eV     1   --> A_1g L_1       
     e(  4 -  4) =     -8.79551  eV     1   --> A_1g L_1       
     e(  5 -  6) =     -8.79524  eV     2   --> E_g  L_3       
     e(  7 -  7) =     -8.08970  eV     1   --> A_2u L_2'      
     e(  8 -  9) =     -8.08955  eV     2   --> E_u  L_3'      
     e( 10 - 12) =      4.47734  eV     3   --> A_2u L_2'      
     e( 10 - 12) =      4.47734  eV     3   --> E_u  L_3'      
     e( 13 - 13) =      7.18013  eV     1   --> A_1g L_1       
     e( 14 - 15) =     11.05300  eV     2   --> E_g  L_3       
     e( 16 - 16) =     12.54887  eV     1   --> A_2u L_2'      
     e( 17 - 18) =     12.54961  eV     2   --> E_u  L_3'      
     e( 19 - 21) =     17.14096  eV     3   --> A_1g L_1       
     e( 19 - 21) =     17.14096  eV     3   --> E_g  L_3       
     e( 22 - 23) =     18.82985  eV     2   --> E_u  L_3'      
     e( 24 - 24) =     19.10684  eV     1   --> A_1g L_1       
     e( 25 - 26) =     19.10761  eV     2   --> E_g  L_3       
     e( 27 - 27) =     19.13824  eV     1   --> A_1g L_1       
     e( 28 - 29) =     22.74010  eV     2   --> E_u  L_3'      
     e( 30 - 30) =     22.74095  eV     1   --> A_2u L_2'      
     e( 31 - 32) =     25.37820  eV     2   --> E_g  L_3       
     e( 33 - 33) =     27.44873  eV     1   --> A_2u L_2'      
     e( 34 - 35) =     27.45087  eV     2   --> E_u  L_3'      
     e( 36 - 36) =     28.52487  eV     1   --> A_2u L_2'      
     e( 37 - 38) =     30.35039  eV     2   --> E_u  L_3'      
     e( 39 - 39) =     30.35156  eV     1   --> A_1u L_1'      
     e( 40 - 40) =     33.71026  eV     1   --> A_1g L_1       

 **************************************************************************

 **************************************************************************

                    xk=(   0.04419,  -0.04420,   0.04419  )

     point group C_s (m)    
     there are  2 classes
     the character table:

       E     s    
A'     1.00  1.00
A''    1.00 -1.00

     the symmetry operations in each class and the name of the first element:

     E        1
                                                                 
     s        2
                                                                 

     Band symmetry, C_s (m)     point group:

     e(  1 -  1) =    -26.04993  eV     1   --> A'             
     e(  2 -  2) =    -25.66416  eV     1   --> A'             
[...]
     e( 14 - 14) =     11.91699  eV     1   --> A_g            
     e( 15 - 15) =     12.13063  eV     1   --> B_g            
     e( 16 - 16) =     12.13267  eV     1   --> A_g            
     e( 17 - 17) =     14.02181  eV     1   --> A_u            
     e( 18 - 18) =     14.02241  eV     1   --> B_u            
     e( 19 - 19) =     14.43190  eV     1   --> A_g            
     e( 20 - 20) =     14.43527  eV     1   --> B_g            
     e( 21 - 21) =     14.89979  eV     1   --> A_g            
     e( 22 - 22) =     15.57530  eV     1   --> B_u            
     e( 23 - 23) =     15.57552  eV     1   --> A_u            
     e( 24 - 24) =     15.96894  eV     1   --> B_u            
     e( 25 - 25) =     20.88473  eV     1   --> B_u            
     e( 26 - 26) =     21.46435  eV     1   --> A_g            
     e( 27 - 27) =     21.46632  eV     1   --> B_g            
     e( 28 - 28) =     23.90784  eV     1   --> A_u            
     e( 29 - 29) =     23.91021  eV     1   --> B_u            
     e( 30 - 30) =     25.19709  eV     1   --> A_g            
     e( 31 - 31) =     26.02081  eV     1   --> B_g            
     e( 32 - 32) =     26.02170  eV     1   --> A_g            
     e( 33 - 33) =     26.60305  eV     1   --> B_u            
     e( 34 - 34) =     26.60495  eV     1   --> A_u            
     e( 35 - 35) =     27.81047  eV     1   --> A_g            
     e( 36 - 36) =     28.48565  eV     1   --> B_u            
     e( 37 - 37) =     30.28685  eV     1   --> B_g            
     e( 38 - 38) =     30.29003  eV     1   --> A_g            
     e( 39 - 39) =     33.10086  eV     1   --> B_u            
     e( 40 - 40) =     33.10697  eV     1   --> A_u            

 **************************************************************************

 **************************************************************************

                    xk=(   0.41246,  -0.29467,   0.29465  )

     point group C_1 (1)    
     there are  1 classes
     the character table:

       E    
A      1.00

     the symmetry operations in each class and the name of the first element:

     E        1
                                                                 

     Band symmetry, C_1 (1)     point group:

     e(  1 -  1) =    -25.86780  eV     1   --> A              
     e(  2 -  2) =    -25.83395  eV     1   --> A              
     e(  3 -  3) =    -10.88971  eV     1   --> A              
     e(  4 -  4) =     -8.67984  eV     1   --> A              
     e(  5 -  5) =     -8.61561  eV     1   --> A              
     e(  6 -  6) =     -8.49083  eV     1   --> A              
     e(  7 -  7) =     -8.34939  eV     1   --> A              
     e(  8 -  8) =     -8.34309  eV     1   --> A              
     e(  9 -  9) =     -8.13265  eV     1   --> A              
     e( 10 - 10) =      4.53083  eV     1   --> A              
     e( 11 - 11) =      4.75681  eV     1   --> A              
     e( 12 - 12) =      4.78579  eV     1   --> A              
     e( 13 - 13) =      9.20915  eV     1   --> A              
     e( 14 - 14) =     11.87868  eV     1   --> A              
     e( 15 - 15) =     12.18348  eV     1   --> A              
     e( 16 - 16) =     12.20747  eV     1   --> A              
     e( 17 - 17) =     13.69048  eV     1   --> A              
     e( 18 - 18) =     13.89370  eV     1   --> A              
     e( 19 - 19) =     14.49123  eV     1   --> A              
     e( 20 - 20) =     14.84495  eV     1   --> A              
     e( 21 - 21) =     14.91806  eV     1   --> A              
     e( 22 - 22) =     15.57824  eV     1   --> A              
     e( 23 - 23) =     15.69553  eV     1   --> A              
     e( 24 - 24) =     16.12466  eV     1   --> A              
     e( 25 - 25) =     20.58395  eV     1   --> A              
     e( 26 - 26) =     21.21498  eV     1   --> A              
     e( 27 - 27) =     21.65990  eV     1   --> A              
     e( 28 - 28) =     23.78474  eV     1   --> A              
     e( 29 - 29) =     23.85703  eV     1   --> A              
     e( 30 - 30) =     24.78003  eV     1   --> A              
     e( 31 - 31) =     25.51929  eV     1   --> A              
     e( 32 - 32) =     25.79437  eV     1   --> A              
     e( 33 - 33) =     27.06430  eV     1   --> A              
     e( 34 - 34) =     27.46985  eV     1   --> A              
     e( 35 - 35) =     27.75199  eV     1   --> A              
     e( 36 - 36) =     28.75473  eV     1   --> A              
     e( 37 - 37) =     30.31681  eV     1   --> A              
     e( 38 - 38) =     30.44646  eV     1   --> A              
     e( 39 - 39) =     32.63779  eV     1   --> A              
     e( 40 - 40) =     32.65640  eV     1   --> A              

 **************************************************************************

 **************************************************************************

                    xk=(   0.47143,  -0.23569,   0.23568  )

     Band symmetry, C_1 (1)     point group:

     e(  1 -  1) =    -25.88263  eV     1   --> A              
     e(  2 -  2) =    -25.81737  eV     1   --> A              
     e(  3 -  3) =    -10.92210  eV     1   --> A              
     e(  4 -  4) =     -8.81152  eV     1   --> A              
     e(  5 -  5) =     -8.73979  eV     1   --> A              
     e(  6 -  6) =     -8.46380  eV     1   --> A              
     e(  7 -  7) =     -8.22628  eV     1   --> A              
     e(  8 -  8) =     -8.19838  eV     1   --> A              
     e(  9 -  9) =     -8.12655  eV     1   --> A              
     e( 10 - 10) =      4.52082  eV     1   --> A              
     e( 11 - 11) =      4.75635  eV     1   --> A              
     e( 12 - 12) =      4.82484  eV     1   --> A              
     e( 13 - 13) =      9.03426  eV     1   --> A              
     e( 14 - 14) =     11.69526  eV     1   --> A              
     e( 15 - 15) =     12.29919  eV     1   --> A              
     e( 16 - 16) =     12.40396  eV     1   --> A              
     e( 17 - 17) =     13.36667  eV     1   --> A              
     e( 18 - 18) =     13.77145  eV     1   --> A              
     e( 19 - 19) =     14.32672  eV     1   --> A              
     e( 20 - 20) =     15.22636  eV     1   --> A              
     e( 21 - 21) =     15.32725  eV     1   --> A              
     e( 22 - 22) =     15.69260  eV     1   --> A              
     e( 23 - 23) =     15.93941  eV     1   --> A              
     e( 24 - 24) =     16.50237  eV     1   --> A              
     e( 25 - 25) =     20.15879  eV     1   --> A              
     e( 26 - 26) =     20.64327  eV     1   --> A              
     e( 27 - 27) =     21.74125  eV     1   --> A              
     e( 28 - 28) =     23.09608  eV     1   --> A              
     e( 29 - 29) =     23.66316  eV     1   --> A              
     e( 30 - 30) =     24.25782  eV     1   --> A              
     e( 31 - 31) =     25.29804  eV     1   --> A              
     e( 32 - 32) =     25.83300  eV     1   --> A              
     e( 33 - 33) =     27.29105  eV     1   --> A              
     e( 34 - 34) =     27.69830  eV     1   --> A              
     e( 35 - 35) =     28.53789  eV     1   --> A              
     e( 36 - 36) =     29.46397  eV     1   --> A              
     e( 37 - 37) =     30.56558  eV     1   --> A              
     e( 38 - 38) =     30.86332  eV     1   --> A              
     e( 39 - 39) =     31.74588  eV     1   --> A              
     e( 40 - 40) =     32.41827  eV     1   --> A              

 **************************************************************************

 **************************************************************************

                    xk=(   0.53034,  -0.17679,   0.17677  )

     Band symmetry, C_1 (1)     point group:

     e(  1 -  1) =    -25.89481  eV     1   --> A              
     e(  2 -  2) =    -25.80280  eV     1   --> A              
     e(  3 -  3) =    -10.96496  eV     1   --> A              
     e(  4 -  4) =     -8.91016  eV     1   --> A              
     e(  5 -  5) =     -8.84656  eV     1   --> A              
     e(  6 -  6) =     -8.46431  eV     1   --> A              
     e(  7 -  7) =     -8.12098  eV     1   --> A              
     e(  8 -  8) =     -8.11375  eV     1   --> A              
     e(  9 -  9) =     -8.05016  eV     1   --> A              
     e( 10 - 10) =      4.44263  eV     1   --> A              
     e( 11 - 11) =      4.81971  eV     1   --> A              
     e( 12 - 12) =      4.87802  eV     1   --> A              
     e( 13 - 13) =      8.85575  eV     1   --> A              
     e( 14 - 14) =     11.58305  eV     1   --> A              
     e( 15 - 15) =     12.34469  eV     1   --> A              
     e( 16 - 16) =     12.36287  eV     1   --> A              
     e( 17 - 17) =     13.32323  eV     1   --> A              
     e( 18 - 18) =     13.84603  eV     1   --> A              
     e( 19 - 19) =     14.13006  eV     1   --> A              
     e( 20 - 20) =     15.37736  eV     1   --> A              
     e( 21 - 21) =     15.50570  eV     1   --> A              
     e( 22 - 22) =     16.23104  eV     1   --> A              
     e( 23 - 23) =     16.33324  eV     1   --> A              
     e( 24 - 24) =     16.90718  eV     1   --> A              
     e( 25 - 25) =     19.80666  eV     1   --> A              
     e( 26 - 26) =     19.99409  eV     1   --> A              
     e( 27 - 27) =     21.69900  eV     1   --> A              
     e( 28 - 28) =     22.05976  eV     1   --> A              
     e( 29 - 29) =     23.22165  eV     1   --> A              
     e( 30 - 30) =     24.33498  eV     1   --> A              
     e( 31 - 31) =     25.32645  eV     1   --> A              
     e( 32 - 32) =     25.64121  eV     1   --> A              
     e( 33 - 33) =     27.08246  eV     1   --> A              
     e( 34 - 34) =     28.03708  eV     1   --> A              
     e( 35 - 35) =     28.89898  eV     1   --> A              
     e( 36 - 36) =     30.39846  eV     1   --> A              
     e( 37 - 37) =     30.96875  eV     1   --> A              
     e( 38 - 38) =     31.25132  eV     1   --> A              
     e( 39 - 39) =     31.39506  eV     1   --> A              
     e( 40 - 40) =     32.62414  eV     1   --> A              

 **************************************************************************

 **************************************************************************

                    xk=(   0.58924,  -0.11789,   0.11787  )

     Band symmetry, C_1 (1)     point group:

     e(  1 -  1) =    -25.90378  eV     1   --> A              
     e(  2 -  2) =    -25.79144  eV     1   --> A              
     e(  3 -  3) =    -11.00664  eV     1   --> A              
     e(  4 -  4) =     -8.96858  eV     1   --> A              
     e(  5 -  5) =     -8.92860  eV     1   --> A              
     e(  6 -  6) =     -8.50341  eV     1   --> A              
     e(  7 -  7) =     -8.04901  eV     1   --> A              
     e(  8 -  8) =     -8.04040  eV     1   --> A              
     e(  9 -  9) =     -7.95650  eV     1   --> A              
     e( 10 - 10) =      4.34834  eV     1   --> A              
     e( 11 - 11) =      4.90087  eV     1   --> A              
     e( 12 - 12) =      4.93105  eV     1   --> A              
     e( 13 - 13) =      8.68804  eV     1   --> A              
     e( 14 - 14) =     11.64874  eV     1   --> A              
     e( 15 - 15) =     12.18305  eV     1   --> A              
     e( 16 - 16) =     12.26403  eV     1   --> A              
     e( 17 - 17) =     13.58492  eV     1   --> A              
     e( 18 - 18) =     13.73973  eV     1   --> A              
     e( 19 - 19) =     14.22549  eV     1   --> A              
     e( 20 - 20) =     15.28609  eV     1   --> A              
     e( 21 - 21) =     15.46521  eV     1   --> A              
     e( 22 - 22) =     16.84019  eV     1   --> A              
     e( 23 - 23) =     16.86832  eV     1   --> A              
     e( 24 - 24) =     17.24074  eV     1   --> A              
     e( 25 - 25) =     19.39228  eV     1   --> A              
     e( 26 - 26) =     19.59728  eV     1   --> A              
     e( 27 - 27) =     21.07953  eV     1   --> A              
     e( 28 - 28) =     21.82540  eV     1   --> A              
     e( 29 - 29) =     22.75153  eV     1   --> A              
     e( 30 - 30) =     24.65891  eV     1   --> A              
     e( 31 - 31) =     25.32951  eV     1   --> A              
     e( 32 - 32) =     25.51117  eV     1   --> A              
     e( 33 - 33) =     26.68293  eV     1   --> A              
     e( 34 - 34) =     27.89168  eV     1   --> A              
     e( 35 - 35) =     28.86809  eV     1   --> A              
     e( 36 - 36) =     30.90230  eV     1   --> A              
     e( 37 - 37) =     31.22260  eV     1   --> A              
     e( 38 - 38) =     31.46097  eV     1   --> A              
     e( 39 - 39) =     32.02422  eV     1   --> A              
     e( 40 - 40) =     32.32242  eV     1   --> A              

 **************************************************************************

 **************************************************************************

                    xk=(   0.64821,  -0.05891,   0.05889  )

     Band symmetry, C_1 (1)     point group:

     e(  1 -  1) =    -25.90925  eV     1   --> A              
     e(  2 -  2) =    -25.78423  eV     1   --> A              
     e(  3 -  3) =    -11.03662  eV     1   --> A              
     e(  4 -  4) =     -8.99272  eV     1   --> A              
     e(  5 -  5) =     -8.98025  eV     1   --> A              
     e(  6 -  6) =     -8.55011  eV     1   --> A              
     e(  7 -  7) =     -7.99376  eV     1   --> A              
     e(  8 -  8) =     -7.98981  eV     1   --> A              
     e(  9 -  9) =     -7.89672  eV     1   --> A              
     e( 10 - 10) =      4.28066  eV     1   --> A              
     e( 11 - 11) =      4.96167  eV     1   --> A              
     e( 12 - 12) =      4.96978  eV     1   --> A              
     e( 13 - 13) =      8.55187  eV     1   --> A              
     e( 14 - 14) =     11.82436  eV     1   --> A              
     e( 15 - 15) =     12.04516  eV     1   --> A              
     e( 16 - 16) =     12.17668  eV     1   --> A              
     e( 17 - 17) =     13.70096  eV     1   --> A              
     e( 18 - 18) =     13.93699  eV     1   --> A              
     e( 19 - 19) =     14.24278  eV     1   --> A              
     e( 20 - 20) =     15.15076  eV     1   --> A              
     e( 21 - 21) =     15.20104  eV     1   --> A              
     e( 22 - 22) =     17.32077  eV     1   --> A              
     e( 23 - 23) =     17.36185  eV     1   --> A              
     e( 24 - 24) =     17.48682  eV     1   --> A              
     e( 25 - 25) =     18.90270  eV     1   --> A              
     e( 26 - 26) =     19.57857  eV     1   --> A              
     e( 27 - 27) =     20.37615  eV     1   --> A              
     e( 28 - 28) =     22.05733  eV     1   --> A              
     e( 29 - 29) =     22.33038  eV     1   --> A              
     e( 30 - 30) =     25.08232  eV     1   --> A              
     e( 31 - 31) =     25.30922  eV     1   --> A              
     e( 32 - 32) =     25.72279  eV     1   --> A              
     e( 33 - 33) =     26.32870  eV     1   --> A              
     e( 34 - 34) =     27.20873  eV     1   --> A              
     e( 35 - 35) =     28.41153  eV     1   --> A              
     e( 36 - 36) =     30.76267  eV     1   --> A              
     e( 37 - 37) =     31.53386  eV     1   --> A              
     e( 38 - 38) =     31.59773  eV     1   --> A              
     e( 39 - 39) =     32.29274  eV     1   --> A              
     e( 40 - 40) =     32.52631  eV     1   --> A              

 **************************************************************************

 **************************************************************************

                    xk=(   0.70712,  -0.00001,  -0.00001  )

     point group C_2h (2/m) 
     there are  4 classes
     the character table:

       E     C2    i     s_h  
A_g    1.00  1.00  1.00  1.00
B_g    1.00 -1.00  1.00 -1.00
A_u    1.00  1.00 -1.00 -1.00
B_u    1.00 -1.00 -1.00  1.00

     the symmetry operations in each class and the name of the first element:

     E        1
                                                                 
     C2       2
                                                                 
     i        3
                                                                 
     s_h      4
                                                                 

     Band symmetry, C_2h (2/m)  point group:

     e(  1 -  1) =    -25.91108  eV     1   --> B_u            
     e(  2 -  2) =    -25.78175  eV     1   --> A_g            
     e(  3 -  3) =    -11.04748  eV     1   --> A_g            
     e(  4 -  4) =     -8.99785  eV     1   --> B_u            
     e(  5 -  5) =     -8.99769  eV     1   --> A_u            
     e(  6 -  6) =     -8.57058  eV     1   --> A_g            
     e(  7 -  7) =     -7.97260  eV     1   --> A_g            
     e(  8 -  8) =     -7.97247  eV     1   --> B_g            
     e(  9 -  9) =     -7.87650  eV     1   --> B_u            
     e( 10 - 10) =      4.25679  eV     1   --> B_u            
     e( 11 - 12) =      4.98390  eV     2   --> A_u            
     e( 11 - 12) =      4.98390  eV     2   --> B_u            
     e( 13 - 13) =      8.49762  eV     1   --> A_g            
     e( 14 - 14) =     11.91732  eV     1   --> B_u            
     e( 15 - 15) =     11.99798  eV     1   --> A_g            
     e( 16 - 16) =     12.14395  eV     1   --> A_u            
     e( 17 - 17) =     13.79887  eV     1   --> A_g            
     e( 18 - 19) =     14.11707  eV     2   --> A_u            
     e( 18 - 19) =     14.11707  eV     2   --> B_u            
     e( 20 - 20) =     15.06590  eV     1   --> A_g            
     e( 21 - 21) =     15.06605  eV     1   --> B_g            
     e( 22 - 22) =     17.46607  eV     1   --> B_u            
     e( 23 - 23) =     17.61182  eV     1   --> B_u            
     e( 24 - 24) =     17.61278  eV     1   --> A_u            
     e( 25 - 25) =     18.66966  eV     1   --> B_g            
     e( 26 - 26) =     19.61230  eV     1   --> B_u            
     e( 27 - 27) =     20.11720  eV     1   --> B_g            
     e( 28 - 28) =     22.13556  eV     1   --> A_g            
     e( 29 - 29) =     22.17678  eV     1   --> A_g            
     e( 30 - 30) =     25.30137  eV     1   --> A_g            
     e( 31 - 31) =     25.30203  eV     1   --> B_g            
     e( 32 - 32) =     26.18589  eV     1   --> A_u            
     e( 33 - 33) =     26.18705  eV     1   --> B_u            
     e( 34 - 34) =     26.61825  eV     1   --> A_g            
     e( 35 - 35) =     27.98686  eV     1   --> B_u            
     e( 36 - 36) =     30.68296  eV     1   --> A_g            
     e( 37 - 37) =     31.65360  eV     1   --> B_u            
     e( 38 - 38) =     31.65607  eV     1   --> A_u            
     e( 39 - 39) =     32.31340  eV     1   --> B_u            
     e( 40 - 40) =     32.79292  eV     1   --> A_g            

 **************************************************************************

     BANDS        :     36.45s CPU   1m26.87s WALL


   This run was terminated on:  11:36:30   3Nov2024            

=------------------------------------------------------------------------------=
   JOB DONE.
=------------------------------------------------------------------------------=
