
     Program PWSCF v.7.1 starts on  2Nov2024 at 13:16:13 

     This program is part of the open-source Quantum ESPRESSO suite
     for quantum simulation of materials; please cite
         "P. Giannozzi et al., J. Phys.:Condens. Matter 21 395502 (2009);
         "P. Giannozzi et al., J. Phys.:Condens. Matter 29 465901 (2017);
         "P. Giannozzi et al., J. Chem. Phys. 152 154105 (2020);
          URL http://www.quantum-espresso.org", 
     in publications or presentations arising from this work. More details at
     http://www.quantum-espresso.org/quote

     Parallel version (MPI & OpenMP), running on       4 processor cores
     Number of MPI processes:                 4
     Threads/MPI process:                     1

     MPI processes distributed on     1 nodes
     181526 MiB available memory on the printing compute node when the environment starts

     Waiting for input...
     Reading input from standard input
Warning: card  &IONS ignored
Warning: card     ION_DYNAMICS = 'BFGS' ignored
Warning: card  / ignored
Warning: card  &CELL ignored
Warning: card     CELL_FACTOR = 6 ignored
Warning: card  / ignored

     Current dimensions of program PWSCF are:
     Max number of different atomic species (ntypx) = 10
     Max number of k-points (npk) =  40000
     Max angular momentum in pseudopotentials (lmaxx) =  4

     Atomic positions and unit cell read from directory:
     ./out/1.save/
     Atomic positions from file used, from input discarded


     IMPORTANT: XC functional enforced from input :
     Exchange-correlation= R2SCAN
                           (   0   0   0   0   0 497 498)
     Any further DFT definition will be discarded
     Please, verify this is what you really want

     Message from routine setup:
     using ibrav=0 with symmetry is DISCOURAGED, use correct ibrav instead

     R & G space division:  proc/nbgrp/npool/nimage =       4
     Subspace diagonalization in iterative solution of the eigenvalue problem:
     a serial algorithm will be used


     Parallelization info
     --------------------
     sticks:   dense  smooth     PW     G-vecs:    dense   smooth      PW
     Min         801     801    214                29744    29744    4215
     Max         802     802    215                29746    29746    4218
     Sum        3205    3205    859               118981   118981   16865

     Using Slab Decomposition



     bravais-lattice index     =            0
     lattice parameter (alat)  =       8.5009  a.u.
     unit-cell volume          =     434.3789 (a.u.)^3
     number of atoms/cell      =            3
     number of atomic types    =            2
     number of electrons       =        24.00
     number of Kohn-Sham states=           40
     kinetic-energy cutoff     =     160.0000  Ry
     charge density cutoff     =     640.0000  Ry
     Exchange-correlation= R2SCAN
                           (   0   0   0   0   0 497 498)

     celldm(1)=   8.500947  celldm(2)=   0.000000  celldm(3)=   0.000000
     celldm(4)=   0.000000  celldm(5)=   0.000000  celldm(6)=   0.000000

     crystal axes: (cart. coord. in units of alat)
               a(1) = (   0.707107   0.707107   0.000020 )  
               a(2) = (   0.000020   0.707107   0.707107 )  
               a(3) = (   0.707107   0.000020   0.707107 )  

     reciprocal axes: (cart. coord. in units 2 pi/alat)
               b(1) = (  0.707117  0.707117 -0.707137 )  
               b(2) = ( -0.707137  0.707117  0.707117 )  
               b(3) = (  0.707117 -0.707137  0.707117 )  


     PseudoPot. # 1 for K  read from file:
     /home/haojia/qe_pseudo/K_ONCV_PBE-1.2.upf
     MD5 check sum: 254690d02b26e0029262a4c77e854448
     Pseudo is Norm-conserving, Zval =  9.0
     Generated using ONCVPSP code by D. R. Hamann
     Using radial grid of  602 points,  6 beta functions with: 
                l(1) =   0
                l(2) =   0
                l(3) =   1
                l(4) =   1
                l(5) =   2
                l(6) =   2

     PseudoPot. # 2 for O  read from file:
     /home/haojia/qe_pseudo/O_ONCV_PBE-1.2.upf
     MD5 check sum: e36c48deb68f4e355fffe4602be2c42c
     Pseudo is Norm-conserving, Zval =  6.0
     Generated using ONCVPSP code by D. R. Hamann
     Using radial grid of  602 points,  4 beta functions with: 
                l(1) =   0
                l(2) =   0
                l(3) =   1
                l(4) =   1

     atomic species   valence    mass     pseudopotential
        K              9.00    39.09800     K ( 1.00)
        O              6.00    15.99900     O ( 1.00)

     12 Sym. Ops., with inversion, found



   Cartesian axes

     site n.     atom                  positions (alat units)
         1           K   tau(   1) = (   0.3536043   0.3536043   0.3536043  )
         2           O   tau(   2) = (   0.0000000   0.0000000   0.0000000  )
         3           K   tau(   3) = (  -0.3536043  -0.3536043  -0.3536043  )

     number of k points=    43  Gaussian smearing, width (Ry)=  0.0200
                       cart. coord. in units 2pi/alat
        k(    1) = (   0.0000000   0.0000000   0.0000000), wk =   0.0465116
        k(    2) = (   0.0441948   0.0441948  -0.0441960), wk =   0.0465116
        k(    3) = (   0.0883896   0.0883896  -0.0883921), wk =   0.0465116
        k(    4) = (   0.1325844   0.1325844  -0.1325881), wk =   0.0465116
        k(    5) = (   0.1767792   0.1767792  -0.1767841), wk =   0.0465116
        k(    6) = (   0.2209740   0.2209740  -0.2209802), wk =   0.0465116
        k(    7) = (   0.2651688   0.2651688  -0.2651762), wk =   0.0465116
        k(    8) = (   0.3093636   0.3093636  -0.3093722), wk =   0.0465116
        k(    9) = (   0.3535583   0.3535583  -0.3535683), wk =   0.0465116
        k(   10) = (   0.2651663   0.4419479  -0.2651787), wk =   0.0465116
        k(   11) = (   0.1767742   0.5303375  -0.1767891), wk =   0.0465116
        k(   12) = (   0.0883822   0.6187271  -0.0883995), wk =   0.0465116
        k(   13) = (  -0.0000099   0.7071167  -0.0000099), wk =   0.0465116
        k(   14) = (   0.0883797   0.6187246   0.0883797), wk =   0.0465116
        k(   15) = (   0.1767693   0.5303326   0.1767693), wk =   0.0465116
        k(   16) = (   0.2651589   0.4419405   0.2651589), wk =   0.0465116
        k(   17) = (   0.3535484   0.3535484   0.3535484), wk =   0.0465116
        k(   18) = (   0.3240625   0.3240625   0.3240625), wk =   0.0465116
        k(   19) = (   0.2946473   0.2946473   0.2946473), wk =   0.0465116
        k(   20) = (   0.2651613   0.2651613   0.2651613), wk =   0.0465116
        k(   21) = (   0.2356754   0.2356754   0.2356754), wk =   0.0465116
        k(   22) = (   0.2062602   0.2062602   0.2062602), wk =   0.0465116
        k(   23) = (   0.1767742   0.1767742   0.1767742), wk =   0.0465116
        k(   24) = (   0.1472883   0.1472883   0.1472883), wk =   0.0465116
        k(   25) = (   0.1178730   0.1178730   0.1178730), wk =   0.0465116
        k(   26) = (   0.0883871   0.0883871   0.0883871), wk =   0.0465116
        k(   27) = (   0.0589012   0.0589012   0.0589012), wk =   0.0465116
        k(   28) = (   0.0294859   0.0294859   0.0294859), wk =   0.0465116
        k(   29) = (   0.0000000   0.0000000   0.0000000), wk =   0.0465116
        k(   30) = (   0.0441948  -0.0441960   0.0441948), wk =   0.0465116
        k(   31) = (   0.0883896  -0.0883921   0.0883896), wk =   0.0465116
        k(   32) = (   0.1325844  -0.1325881   0.1325844), wk =   0.0465116
        k(   33) = (   0.1767792  -0.1767841   0.1767792), wk =   0.0465116
        k(   34) = (   0.2209740  -0.2209802   0.2209740), wk =   0.0465116
        k(   35) = (   0.2651688  -0.2651762   0.2651688), wk =   0.0465116
        k(   36) = (   0.3093636  -0.3093722   0.3093636), wk =   0.0465116
        k(   37) = (   0.3535583  -0.3535683   0.3535583), wk =   0.0465116
        k(   38) = (   0.4124612  -0.2946654   0.2946539), wk =   0.0465116
        k(   39) = (   0.4714347  -0.2356919   0.2356787), wk =   0.0465116
        k(   40) = (   0.5303375  -0.1767891   0.1767742), wk =   0.0465116
        k(   41) = (   0.5892403  -0.1178863   0.1178697), wk =   0.0465116
        k(   42) = (   0.6482139  -0.0589127   0.0588946), wk =   0.0465116
        k(   43) = (   0.7071167  -0.0000099  -0.0000099), wk =   0.0465116

     Dense  grid:   118981 G-vectors     FFT dimensions: (  72,  72,  72)

     Estimated max dynamical RAM per process >      33.66 MB

     Estimated total dynamical RAM >     134.64 MB

     WARNING: libxc functional with ID  497 depends
      on external parameters: check the user_guide of
      QE if you need to modify them or to check their
      default values.
     Reading meta-gga kinetic term

     The potential is recalculated from file :
     ./out/1.save/charge-density

     Starting wfcs are random

     Band Structure Calculation
     Davidson diagonalization with overlap

     ethr =  4.17E-09,  avg # of iterations = 29.8

     total cpu time spent up to now is      339.8 secs

     End of band structure calculation

          k = 0.0000 0.0000 0.0000 ( 14841 PWs)   bands (ev):

   -26.0539 -25.6606 -10.5681  -8.7955  -8.7952  -8.7952  -8.0897  -8.0896
    -8.0896   4.4773   4.4774   4.4774   7.1801  11.0530  11.0530  12.5489
    12.5496  12.5496  17.1410  17.1410  17.1410  18.8298  18.8298  19.1068
    19.1076  19.1076  19.1382  22.7401  22.7401  22.7409  25.3782  25.3782
    27.4487  27.4509  27.4509  28.5249  30.3504  30.3504  30.3516  33.7103

          k = 0.0442 0.0442-0.0442 ( 14854 PWs)   bands (ev):

   -26.0499 -25.6642 -10.5800  -8.7930  -8.7902  -8.7899  -8.0980  -8.0979
    -8.0842   4.4585   4.4882   4.4882   7.2850  11.0763  11.0764  12.4690
    12.5882  12.5889  17.0975  17.0975  17.1245  18.2347  18.2348  18.8682
    19.2461  19.6923  19.6929  22.7284  22.7292  22.8709  25.3277  25.3278
    27.3942  27.4222  27.4240  28.6938  30.3947  30.5024  30.5034  33.8326

          k = 0.0884 0.0884-0.0884 ( 14809 PWs)   bands (ev):

   -26.0380 -25.6747 -10.6139  -8.7838  -8.7742  -8.7740  -8.1226  -8.1225
    -8.0720   4.4191   4.5192   4.5193   7.5709  11.1470  11.1473  12.2663
    12.7021  12.7030  16.9669  16.9670  17.0347  17.5325  17.5328  18.3025
    19.5323  20.3502  20.3511  22.7097  22.7106  23.1828  25.2411  25.2415
    27.2003  27.3244  27.3262  29.2246  30.5274  30.8854  30.8866  34.1043

          k = 0.1326 0.1326-0.1326 ( 14839 PWs)   bands (ev):

   -26.0189 -25.6920 -10.6646  -8.7627  -8.7479  -8.7477  -8.1619  -8.1617
    -8.0615   4.3908   4.5661   4.5662   7.9704  11.2668  11.2674  12.0289
    12.8803  12.8814  16.7328  16.7348  16.7531  16.8716  16.8738  17.7101
    19.8907  20.9003  20.9018  22.7427  22.7440  23.6162  25.2317  25.2322
    26.8775  27.1435  27.1449  30.0746  30.7484  31.3121  31.3133  33.9357

          k = 0.1768 0.1768-0.1768 ( 14842 PWs)   bands (ev):

   -25.9932 -25.7153 -10.7243  -8.7271  -8.7115  -8.7113  -8.2135  -8.2134
    -8.0607   4.3925   4.6220   4.6222   8.4035  11.4344  11.4353  11.8457
    13.1076  13.1090  16.1754  16.1767  16.2121  16.5066  16.5083  17.2785
    20.2183  21.2544  21.2564  22.9130  22.9149  24.2167  25.3668  25.3672
    26.4714  26.8959  26.8968  31.0538  31.0578  31.5529  31.5541  33.0904

          k = 0.2210 0.2210-0.2210 ( 14839 PWs)   bands (ev):

   -25.9622 -25.7439 -10.7835  -8.6797  -8.6657  -8.6655  -8.2746  -8.2744
    -8.0730   4.4230   4.6786   4.6789   8.7910  11.6412  11.6426  11.7752
    13.3659  13.3676  15.5771  15.5778  15.6151  16.1968  16.1980  16.9007
    20.4789  21.4071  21.4093  23.2204  23.2226  25.0077  25.6559  25.6559
    26.0378  26.6121  26.6123  31.2416  31.4394  31.4396  31.4555  33.0672

          k = 0.2652 0.2652-0.2652 ( 14851 PWs)   bands (ev):

   -25.9273 -25.7769 -10.8332  -8.6284  -8.6113  -8.6112  -8.3418  -8.3416
    -8.0957   4.4672   4.7271   4.7275   9.0751  11.8134  11.8640  11.8657
    13.6336  13.6353  15.0484  15.0486  15.1626  15.8980  15.8989  16.4984
    20.6840  21.4526  21.4547  23.5536  23.5559  25.5795  26.0077  26.0517
    26.0524  26.3311  26.3314  30.3364  31.0008  31.0022  31.9412  33.5034

          k = 0.3094 0.3094-0.3094 ( 14860 PWs)   bands (ev):

   -25.8897 -25.8131 -10.8661  -8.5864  -8.5499  -8.5499  -8.4117  -8.4114
    -8.1191   4.5049   4.7599   4.7602   9.2398  11.8858  12.0526  12.0546
    13.8816  13.8825  14.6318  14.6333  14.9424  15.6664  15.6668  16.1326
    20.8297  21.4628  21.4648  23.8093  23.8116  25.3062  26.1090  26.1097
    26.4337  26.4352  27.0093  29.2918  30.5066  30.5093  32.5142  33.1964

          k = 0.3536 0.3536-0.3536 ( 14902 PWs)   bands (ev):

   -25.8517 -25.8507 -10.8776  -8.5697  -8.4923  -8.4915  -8.4731  -8.4720
    -8.1294   4.5195   4.7714   4.7718   9.2932  11.9170  12.1306  12.1327
    14.0218  14.0224  14.4319  14.4353  14.8998  15.5753  15.5755  15.9689
    20.8847  21.4644  21.4663  23.9078  23.9102  25.1971  26.0208  26.0217
    26.6030  26.6050  27.8105  28.4856  30.2868  30.2900  33.1009  33.1070

          k = 0.2652 0.4419-0.2652 ( 14848 PWs)   bands (ev):

   -25.8755 -25.8255 -10.9039  -8.7487  -8.6793  -8.4766  -8.2861  -8.2676
    -8.1333   4.5341   4.7491   4.8027   9.1255  11.7914  12.2394  12.3183
    13.5047  13.8080  14.4363  15.0453  15.1207  15.5972  15.8045  16.2989
    20.3658  20.9513  21.7336  23.5189  23.7939  24.4477  25.3454  25.8315
    27.2403  27.6157  28.1306  29.0485  30.3949  30.6345  32.2156  32.4787

          k = 0.1768 0.5303-0.1768 ( 14864 PWs)   bands (ev):

   -25.8948 -25.8028 -10.9650  -8.9102  -8.8466  -8.4643  -8.1210  -8.1138
    -8.0502   4.4426   4.8197   4.8780   8.8557  11.5830  12.3447  12.3629
    13.3232  13.8460  14.1301  15.3774  15.5057  16.2310  16.3332  16.9072
    19.8067  19.9941  21.6990  22.0598  23.2217  24.3350  25.3264  25.6412
    27.0825  28.0371  28.8990  30.3985  30.9688  31.2513  31.3951  32.6241

          k = 0.0884 0.6187-0.0884 ( 14837 PWs)   bands (ev):

   -25.9070 -25.7873 -11.0237  -8.9841  -8.9585  -8.5282  -8.0184  -8.0111
    -7.9218   4.3097   4.9353   4.9530   8.6130  11.7339  12.1038  12.2154
    13.6951  13.7648  14.2625  15.2208  15.3399  17.1187  17.1235  17.3740
    19.1289  19.5688  20.6816  21.9440  22.5252  24.8692  25.3192  25.5656
    26.4881  27.5750  28.7005  30.9020  31.3879  31.5365  32.0032  32.5382

          k =-0.0000 0.7071-0.0000 ( 14844 PWs)   bands (ev):

   -25.9111 -25.7818 -11.0475  -8.9978  -8.9977  -8.5706  -7.9726  -7.9725
    -7.8765   4.2568   4.9839   4.9839   8.4976  11.9173  11.9980  12.1440
    13.7989  14.1171  14.1171  15.0659  15.0660  17.4661  17.6118  17.6128
    18.6697  19.6123  20.1172  22.1356  22.1768  25.3014  25.3020  26.1859
    26.1871  26.6182  27.9869  30.6830  31.6536  31.6561  32.3134  32.7929

          k = 0.0884 0.6187 0.0884 ( 14837 PWs)   bands (ev):

   -25.9070 -25.7873 -11.0236  -8.9843  -8.9584  -8.5281  -8.0185  -8.0110
    -7.9218   4.3096   4.9352   4.9530   8.6131  11.7341  12.1041  12.2155
    13.6951  13.7652  14.2616  15.2203  15.3406  17.1207  17.1241  17.3716
    19.1288  19.5686  20.6813  21.9431  22.5266  24.8673  25.3199  25.5678
    26.4871  27.5742  28.7005  30.9018  31.3869  31.5387  32.0025  32.5386

          k = 0.1768 0.5303 0.1768 ( 14864 PWs)   bands (ev):

   -25.8948 -25.8028 -10.9648  -8.9104  -8.8464  -8.4641  -8.1209  -8.1141
    -8.0502   4.4424   4.8196   4.8780   8.8562  11.5834  12.3448  12.3638
    13.3238  13.8456  14.1295  15.3760  15.5070  16.2329  16.3333  16.9042
    19.8060  19.9938  21.6993  22.0591  23.2220  24.3343  25.3275  25.6414
    27.0820  28.0368  28.8990  30.3986  30.9674  31.2532  31.3957  32.6269

          k = 0.2652 0.4419 0.2652 ( 14848 PWs)   bands (ev):

   -25.8755 -25.8255 -10.9036  -8.7490  -8.6792  -8.4762  -8.2860  -8.2678
    -8.1338   4.5337   4.7489   4.8026   9.1263  11.7921  12.2395  12.3195
    13.5056  13.8079  14.4364  15.0464  15.1215  15.5965  15.8035  16.2953
    20.3656  20.9506  21.7332  23.5183  23.7943  24.4474  25.3462  25.8284
    27.2406  27.6172  28.1309  29.0511  30.3975  30.6369  32.2113  32.4787

          k = 0.3535 0.3535 0.3535 ( 14902 PWs)   bands (ev):

   -25.8520 -25.8504 -10.8773  -8.5698  -8.4912  -8.4912  -8.4731  -8.4731
    -8.1301   4.5191   4.7714   4.7714   9.2941  11.9179  12.1322  12.1322
    14.0227  14.0227  14.4347  14.4347  14.9007  15.5738  15.5738  15.9648
    20.8860  21.4637  21.4637  23.9103  23.9103  25.1922  26.0183  26.0183
    26.6073  26.6073  27.8118  28.4884  30.2917  30.2917  33.0997  33.0997

          k = 0.3241 0.3241 0.3241 ( 14866 PWs)   bands (ev):

   -25.8770 -25.8256 -10.8721  -8.5775  -8.5282  -8.5282  -8.4347  -8.4347
    -8.1253   4.5125   4.7662   4.7662   9.2704  11.9036  12.0962  12.0962
    13.9513  13.9513  14.5325  14.5325  14.9165  15.6156  15.6156  16.0416
    20.8609  21.4632  21.4632  23.8653  23.8653  25.2417  26.0588  26.0588
    26.5284  26.5284  27.3473  28.9547  30.3935  30.3935  32.7245  33.1418

          k = 0.2946 0.2946 0.2946 ( 14857 PWs)   bands (ev):

   -25.9024 -25.8008 -10.8570  -8.5985  -8.5708  -8.5708  -8.3882  -8.3882
    -8.1127   4.4939   4.7511   4.7511   9.1987  11.8642  11.9994  11.9994
    13.8056  13.8056  14.7551  14.7551  14.9909  15.7308  15.7308  16.2380
    20.7905  21.4605  21.4605  23.7400  23.7400  25.3812  26.1697  26.1697
    26.3233  26.3233  26.6695  29.6419  30.6600  30.6600  32.3149  33.2714

          k = 0.2652 0.2652 0.2652 ( 14851 PWs)   bands (ev):

   -25.9273 -25.7769 -10.8329  -8.6286  -8.6111  -8.6111  -8.3416  -8.3416
    -8.0963   4.4670   4.7271   4.7271   9.0758  11.8137  11.8651  11.8651
    13.6356  13.6356  15.0485  15.0485  15.1639  15.8977  15.8977  16.4946
    20.6848  21.4521  21.4521  23.5552  23.5552  25.5752  26.0099  26.0553
    26.0553  26.3292  26.3292  30.3382  31.0041  31.0041  31.9422  33.5021

          k = 0.2357 0.2357 0.2357 ( 14845 PWs)   bands (ev):

   -25.9510 -25.7545 -10.8012  -8.6627  -8.6482  -8.6482  -8.2963  -8.2963
    -8.0803   4.4370   4.6960   4.6960   8.8993  11.7163  11.7163  11.7785
    13.4571  13.4571  15.3917  15.3917  15.4434  16.0940  16.0940  16.7652
    20.5533  21.4290  21.4290  23.3356  23.3356  25.3026  25.7831  25.7831
    25.9007  26.5144  26.5144  30.9867  31.3222  31.3222  31.6083  33.4024

          k = 0.2063 0.2063 0.2063 ( 14818 PWs)   bands (ev):

   -25.9731 -25.7339 -10.7642  -8.6966  -8.6817  -8.6817  -8.2533  -8.2533
    -8.0680   4.4102   4.6602   4.6602   8.6719  11.5698  11.5698  11.7847
    13.2795  13.2795  15.7705  15.7705  15.8069  16.3013  16.3013  17.0249
    20.3993  21.3730  21.3730  23.1100  23.1100  24.7281  25.5471  25.5471
    26.1770  26.7074  26.7074  31.3143  31.3729  31.5217  31.5217  32.8692

          k = 0.1768 0.1768 0.1768 ( 14842 PWs)   bands (ev):

   -25.9932 -25.7153 -10.7241  -8.7272  -8.7113  -8.7113  -8.2134  -8.2134
    -8.0612   4.3923   4.6220   4.6220   8.4039  11.4349  11.4349  11.8455
    13.1091  13.1091  16.1756  16.1756  16.2140  16.5078  16.5078  17.2748
    20.2181  21.2543  21.2543  22.9137  22.9137  24.2192  25.3695  25.3695
    26.4679  26.8955  26.8955  31.0540  31.0588  31.5541  31.5541  33.0910

          k = 0.1473 0.1473 0.1473 ( 14827 PWs)   bands (ev):

   -26.0110 -25.6991 -10.6838  -8.7526  -8.7367  -8.7367  -8.1777  -8.1777
    -8.0602   4.3876   4.5841   4.5841   8.1151  11.3178  11.3178  11.9579
    12.9526  12.9526  16.5820  16.5820  16.5978  16.7189  16.7189  17.5465
    20.0062  21.0432  21.0432  22.7813  22.7813  23.7971  25.2613  25.2613
    26.7459  27.0673  27.0673  30.4033  30.8426  31.4245  31.4245  33.6718

          k = 0.1179 0.1179 0.1179 ( 14833 PWs)   bands (ev):

   -26.0260 -25.6855 -10.6462  -8.7714  -8.7576  -8.7576  -8.1472  -8.1472
    -8.0645   4.3973   4.5491   4.5491   7.8298  11.2217  11.2217  12.1055
    12.8158  12.8158  16.8281  16.8281  16.8786  17.0808  17.0808  17.8900
    19.7702  20.7351  20.7351  22.7206  22.7206  23.4587  25.2226  25.2226
    26.9936  27.2130  27.2130  29.7640  30.6661  31.1800  31.1800  34.1093

          k = 0.0884 0.0884 0.0884 ( 14809 PWs)   bands (ev):

   -26.0381 -25.6747 -10.6138  -8.7840  -8.7740  -8.7740  -8.1225  -8.1225
    -8.0722   4.4190   4.5193   4.5193   7.5710  11.1472  11.1472  12.2658
    12.7030  12.7030  16.9668  16.9668  17.0351  17.5331  17.5331  18.3012
    19.5316  20.3504  20.3504  22.7097  22.7097  23.1845  25.2423  25.2423
    27.1975  27.3255  27.3255  29.2248  30.5284  30.8857  30.8857  34.1045

          k = 0.0589 0.0589 0.0589 ( 14839 PWs)   bands (ev):

   -26.0468 -25.6669 -10.5890  -8.7912  -8.7858  -8.7858  -8.1043  -8.1043
    -8.0807   4.4460   4.4965   4.4965   7.3629  11.0945  11.0945  12.4107
    12.6190  12.6190  17.0637  17.0637  17.1071  18.0003  18.0003  18.7013
    19.3253  19.9181  19.9181  22.7210  22.7210  22.9617  25.2975  25.2975
    27.3436  27.4002  27.4002  28.8300  30.4301  30.6118  30.6118  33.9184

          k = 0.0295 0.0295 0.0295 ( 14851 PWs)   bands (ev):

   -26.0522 -25.6622 -10.5734  -8.7946  -8.7929  -8.7929  -8.0933  -8.0933
    -8.0872   4.4685   4.4822   4.4822   7.2275  11.0634  11.0634  12.5121
    12.5672  12.5672  17.1216  17.1216  17.1345  18.4680  18.4680  18.9972
    19.1860  19.4654  19.4654  22.7346  22.7346  22.8019  25.3542  25.3542
    27.4246  27.4394  27.4394  28.5990  30.3712  30.4197  30.4197  33.7663

          k = 0.0000 0.0000 0.0000 ( 14841 PWs)   bands (ev):

   -26.0539 -25.6606 -10.5681  -8.7955  -8.7952  -8.7952  -8.0897  -8.0896
    -8.0896   4.4773   4.4774   4.4774   7.1801  11.0530  11.0530  12.5489
    12.5496  12.5496  17.1410  17.1410  17.1410  18.8298  18.8298  19.1068
    19.1076  19.1076  19.1382  22.7401  22.7401  22.7409  25.3782  25.3782
    27.4487  27.4509  27.4509  28.5249  30.3504  30.3504  30.3516  33.7103

          k = 0.0442-0.0442 0.0442 ( 14854 PWs)   bands (ev):

   -26.0499 -25.6642 -10.5800  -8.7930  -8.7902  -8.7899  -8.0980  -8.0979
    -8.0842   4.4585   4.4882   4.4882   7.2850  11.0763  11.0764  12.4690
    12.5882  12.5889  17.0975  17.0975  17.1245  18.2347  18.2348  18.8682
    19.2461  19.6923  19.6929  22.7284  22.7292  22.8709  25.3277  25.3278
    27.3942  27.4222  27.4240  28.6938  30.3947  30.5024  30.5034  33.8326

          k = 0.0884-0.0884 0.0884 ( 14809 PWs)   bands (ev):

   -26.0380 -25.6747 -10.6139  -8.7838  -8.7742  -8.7740  -8.1226  -8.1225
    -8.0720   4.4191   4.5192   4.5193   7.5709  11.1470  11.1473  12.2663
    12.7021  12.7030  16.9669  16.9670  17.0347  17.5325  17.5328  18.3025
    19.5323  20.3502  20.3511  22.7097  22.7106  23.1828  25.2411  25.2415
    27.2003  27.3244  27.3262  29.2246  30.5274  30.8854  30.8866  34.1043

          k = 0.1326-0.1326 0.1326 ( 14839 PWs)   bands (ev):

   -26.0189 -25.6920 -10.6646  -8.7627  -8.7479  -8.7477  -8.1619  -8.1617
    -8.0615   4.3908   4.5661   4.5662   7.9704  11.2668  11.2674  12.0289
    12.8803  12.8814  16.7328  16.7348  16.7531  16.8716  16.8738  17.7101
    19.8907  20.9003  20.9018  22.7427  22.7440  23.6162  25.2317  25.2322
    26.8775  27.1435  27.1449  30.0746  30.7484  31.3121  31.3133  33.9357

          k = 0.1768-0.1768 0.1768 ( 14842 PWs)   bands (ev):

   -25.9932 -25.7153 -10.7243  -8.7271  -8.7115  -8.7113  -8.2135  -8.2134
    -8.0607   4.3925   4.6220   4.6222   8.4035  11.4344  11.4353  11.8457
    13.1076  13.1090  16.1754  16.1767  16.2121  16.5066  16.5083  17.2785
    20.2183  21.2544  21.2564  22.9130  22.9149  24.2167  25.3668  25.3672
    26.4714  26.8959  26.8968  31.0538  31.0578  31.5529  31.5541  33.0904

          k = 0.2210-0.2210 0.2210 ( 14839 PWs)   bands (ev):

   -25.9622 -25.7439 -10.7835  -8.6797  -8.6657  -8.6655  -8.2746  -8.2744
    -8.0730   4.4230   4.6786   4.6789   8.7910  11.6412  11.6426  11.7752
    13.3659  13.3676  15.5771  15.5778  15.6151  16.1968  16.1980  16.9007
    20.4789  21.4071  21.4093  23.2204  23.2226  25.0077  25.6559  25.6559
    26.0378  26.6121  26.6123  31.2416  31.4394  31.4396  31.4555  33.0672

          k = 0.2652-0.2652 0.2652 ( 14851 PWs)   bands (ev):

   -25.9273 -25.7769 -10.8332  -8.6284  -8.6113  -8.6112  -8.3418  -8.3416
    -8.0957   4.4672   4.7271   4.7275   9.0751  11.8134  11.8640  11.8657
    13.6336  13.6353  15.0484  15.0486  15.1626  15.8980  15.8989  16.4984
    20.6840  21.4526  21.4547  23.5536  23.5559  25.5795  26.0077  26.0517
    26.0524  26.3311  26.3314  30.3364  31.0008  31.0022  31.9412  33.5034

          k = 0.3094-0.3094 0.3094 ( 14860 PWs)   bands (ev):

   -25.8897 -25.8131 -10.8661  -8.5864  -8.5499  -8.5499  -8.4117  -8.4114
    -8.1191   4.5049   4.7599   4.7602   9.2398  11.8858  12.0526  12.0546
    13.8816  13.8825  14.6318  14.6333  14.9424  15.6664  15.6668  16.1326
    20.8297  21.4628  21.4648  23.8093  23.8116  25.3062  26.1090  26.1097
    26.4337  26.4352  27.0093  29.2918  30.5066  30.5093  32.5142  33.1964

          k = 0.3536-0.3536 0.3536 ( 14902 PWs)   bands (ev):

   -25.8517 -25.8507 -10.8776  -8.5697  -8.4923  -8.4915  -8.4731  -8.4720
    -8.1294   4.5195   4.7714   4.7718   9.2932  11.9170  12.1306  12.1327
    14.0218  14.0224  14.4319  14.4353  14.8998  15.5753  15.5755  15.9689
    20.8847  21.4644  21.4663  23.9078  23.9102  25.1971  26.0208  26.0217
    26.6030  26.6050  27.8105  28.4856  30.2868  30.2900  33.1009  33.1070

          k = 0.4125-0.2947 0.2947 ( 14855 PWs)   bands (ev):

   -25.8678 -25.8340 -10.8897  -8.6798  -8.6156  -8.4908  -8.3494  -8.3431
    -8.1326   4.5308   4.7568   4.7858   9.2092  11.8787  12.1835  12.2075
    13.6905  13.8937  14.4912  14.8449  14.9181  15.5782  15.6955  16.1247
    20.5840  21.2150  21.6599  23.7847  23.8570  24.7800  25.5193  25.7944
    27.0643  27.4699  27.7520  28.7547  30.3168  30.4465  32.6378  32.6564

          k = 0.4714-0.2357 0.2357 ( 14836 PWs)   bands (ev):

   -25.8826 -25.8174 -10.9221  -8.8115  -8.7398  -8.4638  -8.2263  -8.1984
    -8.1265   4.5208   4.7563   4.8248   9.0343  11.6953  12.2992  12.4040
    13.3667  13.7714  14.3267  15.2264  15.3273  15.6926  15.9394  16.5024
    20.1588  20.6433  21.7413  23.0961  23.6632  24.2578  25.2980  25.8330
    27.2910  27.6983  28.5379  29.4640  30.5656  30.8633  31.7459  32.4183

          k = 0.5303-0.1768 0.1768 ( 14864 PWs)   bands (ev):

   -25.8948 -25.8028 -10.9650  -8.9102  -8.8466  -8.4643  -8.1210  -8.1138
    -8.0502   4.4426   4.8197   4.8780   8.8557  11.5830  12.3447  12.3629
    13.3232  13.8460  14.1301  15.3774  15.5057  16.2310  16.3332  16.9072
    19.8067  19.9941  21.6990  22.0598  23.2217  24.3350  25.3264  25.6412
    27.0825  28.0371  28.8990  30.3985  30.9688  31.2513  31.3951  32.6241

          k = 0.5892-0.1179 0.1179 ( 14855 PWs)   bands (ev):

   -25.9038 -25.7914 -11.0066  -8.9686  -8.9286  -8.5034  -8.0490  -8.0404
    -7.9565   4.3483   4.9009   4.9310   8.6880  11.6487  12.1831  12.2640
    13.5849  13.7397  14.2255  15.2861  15.4652  16.8402  16.8683  17.2407
    19.3923  19.5973  21.0795  21.8254  22.7515  24.6589  25.3295  25.5112
    26.6829  27.8917  28.8681  30.9023  31.2226  31.4610  32.0242  32.3224

          k = 0.6482-0.0589 0.0589 ( 14841 PWs)   bands (ev):

   -25.9092 -25.7842 -11.0366  -8.9927  -8.9803  -8.5501  -7.9938  -7.9898
    -7.8967   4.2807   4.9617   4.9698   8.5519  11.8244  12.0452  12.1767
    13.7010  13.9370  14.2428  15.1508  15.2010  17.3208  17.3619  17.4868
    18.9027  19.5786  20.3762  22.0573  22.3304  25.0823  25.3092  25.7228
    26.3287  27.2087  28.4115  30.7627  31.5339  31.5977  32.2927  32.5263

          k = 0.7071-0.0000-0.0000 ( 14844 PWs)   bands (ev):

   -25.9111 -25.7818 -11.0475  -8.9978  -8.9977  -8.5706  -7.9726  -7.9725
    -7.8765   4.2568   4.9839   4.9839   8.4976  11.9173  11.9980  12.1440
    13.7989  14.1171  14.1171  15.0659  15.0660  17.4661  17.6118  17.6128
    18.6697  19.6123  20.1172  22.1356  22.1768  25.3014  25.3020  26.1859
    26.1871  26.6182  27.9869  30.6830  31.6536  31.6561  32.3134  32.7929

     the Fermi energy is     6.0998 ev
     (compare with:     6.1976 eV, computed in scf)

     Writing all to output data dir ./out/1.save/

     init_run     :      0.88s CPU      1.56s WALL (       1 calls)
     electrons    :    280.85s CPU    335.38s WALL (       1 calls)

     Called by init_run:
     wfcinit      :      0.00s CPU      0.23s WALL (       1 calls)
     potinit      :      0.11s CPU      0.45s WALL (       1 calls)
     hinit0       :      0.71s CPU      0.73s WALL (       1 calls)

     Called by electrons:
     c_bands      :    280.85s CPU    335.38s WALL (       1 calls)
     v_of_rho     :      0.10s CPU      0.12s WALL (       1 calls)

     Called by c_bands:
     init_us_2    :      0.07s CPU      0.08s WALL (      43 calls)
     init_us_2:cp :      0.07s CPU      0.08s WALL (      43 calls)
     cegterg      :    252.55s CPU    261.81s WALL (      87 calls)

     Called by *egterg:
     cdiaghg      :      2.88s CPU      2.99s WALL (    1324 calls)
     h_psi        :    252.29s CPU    261.70s WALL (    1411 calls)
     g_psi        :      0.49s CPU      0.50s WALL (    1281 calls)

     Called by h_psi:
     h_psi:calbec :      1.25s CPU      1.35s WALL (    1411 calls)
     vloc_psi     :     61.21s CPU     63.72s WALL (    1411 calls)
     add_vuspsi   :      1.71s CPU      1.73s WALL (    1411 calls)
     h_psi_meta   :    187.77s CPU    194.29s WALL (    1411 calls)

     General routines
     calbec       :      1.25s CPU      1.34s WALL (    1411 calls)
     fft          :      0.53s CPU      0.54s WALL (      11 calls)
     fftw         :    216.43s CPU    224.18s WALL (  257592 calls)
     interpolate  :      0.00s CPU      0.00s WALL (       1 calls)
     davcio       :      0.02s CPU     12.49s WALL (      86 calls)

     Parallel routines

     PWSCF        :   4m43.19s CPU   6m 4.00s WALL


   This run was terminated on:  13:22:17   2Nov2024            

=------------------------------------------------------------------------------=
   JOB DONE.
=------------------------------------------------------------------------------=
